
                                 *****************
                                 * O   R   C   A *
                                 *****************

                                            #,                                       
                                            ###                                      
                                            ####                                     
                                            #####                                    
                                            ######                                   
                                           ########,                                 
                                     ,,################,,,,,                         
                               ,,#################################,,                 
                          ,,##########################################,,             
                       ,#########################################, ''#####,          
                    ,#############################################,,   '####,        
                  ,##################################################,,,,####,       
                ,###########''''           ''''###############################       
              ,#####''   ,,,,##########,,,,          '''####'''          '####       
            ,##' ,,,,###########################,,,                        '##       
           ' ,,###''''                  '''############,,,                           
         ,,##''                                '''############,,,,        ,,,,,,###''
      ,#''                                            '''#######################'''  
     '                                                          ''''####''''         
             ,#######,   #######,   ,#######,      ##                                
            ,#'     '#,  ##    ##  ,#'     '#,    #''#        ,####,   ,####,        
            ##       ##  ##   ,#'  ##            #'  '#       #'       #'  '#        
            ##       ##  #######   ##           ,######,      #####,   #    #        
            '#,     ,#'  ##    ##  '#,     ,#' ,#      #,     #,   #   #,  ,#        
             '#######'   ##     ##  '#######'  #'      '#     '####' # '####'        



                #########################################################
                #                        -***-                          #
                #          Department of theory and spectroscopy        #
                #                                                       #
                #                      Frank Neese                      #
                #                                                       #
                #     Directorship, Architecture, Infrastructure        #
                #                    SHARK, DRIVERS                     #
                #        Core code/Algorithms in most modules           #
                #                                                       #
                #        Max Planck Institute fuer Kohlenforschung      #
                #                Kaiser Wilhelm Platz 1                 #
                #                 D-45470 Muelheim/Ruhr                 #
                #                      Germany                          #
                #                                                       #
                #                  All rights reserved                  #
                #                        -***-                          #
                #########################################################


                         Program Version 6.0.1  -  RELEASE   -


 With contributions from (in alphabetic order):
[Max-Planck-Institut fuer Kohlenforschung]                               
  Daniel Aravena         : Magnetic Suceptibility                        
  Michael Atanasov       : Ab Initio Ligand Field Theory (pilot matlab implementation)
  Alexander A. Auer      : GIAO ZORA, VPT2 properties, NMR spectrum      
  Ute Becker             : All parallelization in ORCA, NUMFREQ, NUMCALC 
  Giovanni Bistoni       : ED, misc. LED, open-shell LED, HFLD           
  Martin Brehm           : Molecular dynamics                            
  Dmytro Bykov           : pre 5.0 version of the SCF Hessian            
  Marcos Casanova-Páez   : Triplet and SCS-CIS(D). UHF-(DLPNO)-IP/EA/STEOM-CCSD. UHF-CVS-IP/STEOM-CCSD   
  Vijay G. Chilkuri      : MRCI spin determinant printing, contributions to CSF-ICE 
  Pauline Colinet        : FMM embedding                                 
  Dipayan Datta          : RHF DLPNO-CCSD density                        
  Achintya Kumar Dutta   : EOM-CC, STEOM-CC                              
  Nicolas Foglia         : Exact transition moments, OPA infrastructure, MCD improvements    
  Dmitry Ganyushin       : Spin-Orbit,Spin-Spin,Magnetic field MRCI      
  Miquel Garcia-Rates    : C-PCM and meta-GGA Hessian, CCSD/C-PCM, Gaussian charge scheme 
  Tiago L. C. Gouveia    : GS-ROHF, GS-ROCIS                             
  Yang Guo               : DLPNO-NEVPT2, F12-NEVPT2, CIM, IAO-localization        
  Andreas Hansen         : Spin unrestricted coupled pair/coupled cluster methods 
  Ingolf Harden          : AUTO-CI MPn and infrastructure                
  Benjamin Helmich-Paris : MC-RPA, TRAH-(SCF,CASSCF), AVAS, COSX integrals, SCF dyn. polar. 
  Lee Huntington         : MR-EOM, pCC                                   
  Robert Izsak           : Overlap fitted RIJCOSX, COSX-SCS-MP3, EOM     
  Riya Kayal             : Wick's Theorem for AUTO-CI, AUTO-CI UHF-CCSDT 
  Emily Kempfer          : AUTO-CI, RHF CISDT and CCSDT                  
  Christian Kollmar      : KDIIS, OOCD, Brueckner-CCSD(T), CCSD density, CASPT2, CASPT2-K, improved NEVPT2 
  Axel Koslowski         : Symmetry handling                             
  Simone Kossmann        : meta-GGA functionals, TD-DFT gradient, OOMP2, (MP2 Hessian; deprecated post 5.0) 
  Lucas Lang             : DCDCAS                                        
  Marvin Lechner         : AUTO-CI (C++ implementation), FIC-MRCC        
  Spencer Leger          : CASSCF response                               
  Dagmar Lenk            : GEPOL surface, SMD, ORCA-2-JSON               
  Dimitrios Liakos       : Extrapolation schemes; Compound Job, initial MDCI parallelization 
  Dimitrios Manganas     : Further ROCIS development; embedding schemes. LFT, Crystal Embedding 
  Dimitrios Pantazis     : SARC Basis sets                               
  Anastasios Papadopoulos: AUTO-CI, single reference methods and gradients 
  Taras Petrenko         : pre 6.0 DFT Hessian and TD-DFT gradient, (ASA, deprecated), ECA, 1-Electron XAS/XES, NRVS 
  Peter Pinski           : DLPNO-MP2, DLPNO-MP2 Gradient                 
  Christoph Reimann      : Effective Core Potentials                     
  Marius Retegan         : Local ZFS, SOC                                
  Christoph Riplinger    : Optimizer, TS searches, QM/MM, DLPNO-CCSD(T), (RO)-DLPNO pert. Triples 
  Michael Roemelt        : Original ROCIS implementation                 
  Masaaki Saitow         : Open-shell DLPNO-CCSD energy and density      
  Barbara Sandhoefer     : DKH picture change effects                    
  Kantharuban Sivalingam : CASSCF convergence/infrastructure, NEVPT2 and variants, FIC-MRCI 
  Bernardo de Souza      : ESD, SOC TD-DFT                               
  Georgi L. Stoychev     : AutoAux, RI-MP2 NMR, DLPNO-MP2 response, X2C  
  Van Anh Tran           : RI-MP2 g-tensors                              
  Willem Van den Heuvel  : Paramagnetic NMR                              
  Zikuan Wang            : NOTCH, Electric field optimization            
  Frank Wennmohs         : Technical directorship and infrastructure     
  Hang Xu                : AUTO-CI-Response properties                   
                                                                         
[FACCTs GmbH]                                                            
  Markus Bursch, Miquel Garcia-Rates, Christoph Riplinger, Bernardo de Souza, Georgi L. Stoychev 
                                                                 
  APM, Basis sets (HGBS, AHGBS, def-TZVP (Ac-Lr), def2-XVPD (La-Lu)), CI-OPT, improved COSX, DLPNO-Multilevel,           
  DOCKER, DRACO, updates on ESD, GOAT, IRC, LR-CPCM, MBIS, meta-GGA TD-DFT gradient, ML-optimized integration grids, 
  MM, NACMEs, nearIR, NEB, NEB-TS, NL-DFT gradient (VV10), 2- and 3-layer-ONIOM, interface openCOSMO-RS, QMMM,   
  Crystal-QMMM, SF, symmetry and pop. for TD-DFT, r2SCAN hybrids, SOLVATOR                                   
                                                                         
[Other institutions]                                                     
  V. Asgeirsson          : NEB                                           
  Christoph Bannwarth    : sTDA-DFT, sTD-DFT, PBEh-3c, B97-3c, D3        
  Sebastian Ehlert       : rSCAN, r2SCAN, r2SCAN-3c, D4, dhf basis sets  
  Marvin Friede          : D4 for Fr, Ra, Ac-Lr                          
  Lars Goerigk           : TD-DFT with DH, B97 family of functionals     
  Stefan Grimme          : VdW corrections, initial TS optimization, DFT functionals, gCP, sTDA/sTD-DF 
  Waldemar Hujo          : DFT-NL                                        
  H. Jonsson             : NEB                                           
  Holger Kruse           : gCP                                           
  Marcel Mueller         : wB97X-3c, vDZP basis set                      
  Hagen Neugebauer       : wr2SCAN                                       
  Tobias Risthaus        : range-separated hybrid DFT                    
  Lukas Wittmann         : regularized MP2, r2SCAN double-hybrids, wr2SCAN        
                                                                         
We gratefully acknowledge several colleagues who have allowed us to      
interface, adapt or use parts of their codes:                            
  Ed Valeev, F. Pavosevic, A. Kumar             : LibInt (2-el integral package), F12 methods 
  Garnet Chan, S. Sharma, J. Yang, R. Olivares  : DMRG                   
  Ulf Ekstrom                                   : XCFun DFT Library      
  Mihaly Kallay                                 : mrcc  (arbitrary order and MRCC methods)
  Frank Weinhold                                : gennbo (NPA and NBO analysis)           
  Simon Mueller                                 : openCOSMO-RS                            
  Christopher J. Cramer and Donald G. Truhlar   : smd solvation model                     
  S Lehtola, MJT Oliveira, MAL Marques          : LibXC Library                           
  Liviu Ungur et al                             : ANISO software                          


 Your calculation uses the libint2 library for the computation of 2-el integrals
 For citations please refer to: http://libint.valeyev.net

 Your ORCA version has been built with support for libXC version: 6.2.2
 For citations please refer to: https://libxc.gitlab.io

 This ORCA versions uses:
   CBLAS   interface :  Fast vector & matrix operations
   LAPACKE interface :  Fast linear algebra routines
   SCALAPACK package :  Parallel linear algebra routines
   Shared memory     :  Shared parallel matrices
   BLAS/LAPACK       :  OpenBLAS 0.3.27  USE64BITINT DYNAMIC_ARCH NO_AFFINITY SkylakeX SINGLE_THREADED
        Core in use  :  SkylakeX
   Copyright (c) 2011-2014, The OpenBLAS Project


NOTE: MaxCore=3500 MB was set to SCF,MP2,MDCI,CIPSI,MRCI and CIS
      => If you want to overwrite this, your respective input block should be placed after the MaxCore statement


***************************************
The coordinates will be read from file: alanine_cpcm_xtb.xyz
***************************************


Warning: RI is on but no J-basis has been assigned. Assigning Def2/J (nothing to worry about!)
================================================================================

----- Orbital basis set information -----
Your calculation utilizes the basis: def2-TZVP
   F. Weigend and R. Ahlrichs, Phys. Chem. Chem. Phys. 7, 3297 (2005).

----- AuxJ basis set information -----
Your calculation utilizes the auxiliary basis: def2/J
   F. Weigend, Phys. Chem. Chem. Phys. 8, 1057 (2006).

================================================================================
                                        WARNINGS
                       Please study these warnings very carefully!
================================================================================


WARNING: Geometry Optimization
  ===> : Switching off AutoStart
         For restart on a previous wavefunction, please use MOREAD

================================================================================
                                       INPUT FILE
================================================================================
NAME = alanine_cpcm.inp
|  1> # ORCA input file for alanine CPCM water solvated optimization and frequency calculation
|  2> # PBE0/def2-TZVP with CPCM water
|  3> 
|  4> ! OPT FREQ PBE0 def2-TZVP
|  5> 
|  6> %MaxCore 3500
|  7> 
|  8> %pal
|  9>    nprocs 16
| 10>    nprocs_group 4
| 11> end
| 12> 
| 13> %cpcm
| 14> epsilon 78.39
| 15> rsolv 1.4
| 16> surfacetype vdw_gaussian
| 17> end
| 18> 
| 19> %output
| 20> Print[ P_Basis ] 2
| 21> Print[ P_MOs ] 1
| 22> Print[P_hirshfeld] 1
| 23> end
| 24> 
| 25> * xyzfile 0 1 alanine_cpcm_xtb.xyz
| 26> 
| 27>                          ****END OF INPUT****
================================================================================

                       *****************************
                       * Geometry Optimization Run *
                       *****************************

Geometry optimization settings:
Update method            Update   .... BFGS
Choice of coordinates    CoordSys .... (2022) Redundant Internals
Initial Hessian          InHess   .... Almloef's Model
Max. no of cycles        MaxIter  .... 50

Convergence Tolerances:
Energy Change            TolE     ....  5.0000e-06 Eh
Max. Gradient            TolMAXG  ....  3.0000e-04 Eh/bohr
RMS Gradient             TolRMSG  ....  1.0000e-04 Eh/bohr
Max. Displacement        TolMAXD  ....  4.0000e-03 bohr
RMS Displacement         TolRMSD  ....  2.0000e-03 bohr
Strict Convergence                .... False

------------------------------------------------------------------------------
                        ORCA OPTIMIZATION COORDINATE SETUP
------------------------------------------------------------------------------

The optimization will be done in redundant internal coordinates (2022)
Making redundant internal coordinates   ...  (2022 redundants) done
Evaluating the initial hessian          ...  (Almloef) done
Evaluating the coordinates              ...  done
Calculating the B-matrix                .... done
Calculating the G-matrix                .... done
Diagonalizing the G-matrix              .... done
The first mode is                       ....   16
The number of degrees of freedom        ....   33

    -----------------------------------------------------------------
                    Redundant Internal Coordinates


    -----------------------------------------------------------------
         Definition                    Initial Value    Approx d2E/dq
    -----------------------------------------------------------------
      1. B(C   1,C   0)                  1.5326         0.370029   
      2. B(N   2,C   1)                  1.4479         0.452397   
      3. B(C   3,C   1)                  1.5266         0.378308   
      4. B(O   4,C   3)                  1.3416         0.668598   
      5. B(O   5,C   3)                  1.2017         1.117550   
      6. B(H   6,C   0)                  1.0881         0.362632   
      7. B(H   7,C   0)                  1.0862         0.365224   
      8. B(H   8,C   0)                  1.0857         0.365785   
      9. B(H   9,C   1)                  1.0963         0.351800   
     10. B(H  10,N   2)                  1.0147         0.425305   
     11. B(H  11,N   2)                  1.0139         0.426556   
     12. B(H  12,O   4)                  0.9698         0.501560   
     13. A(H   6,C   0,H   8)          108.6958         0.291878   
     14. A(C   1,C   0,H   6)          110.1510         0.324184   
     15. A(H   7,C   0,H   8)          109.5556         0.292205   
     16. A(H   6,C   0,H   7)          109.1328         0.291807   
     17. A(C   1,C   0,H   8)          109.0603         0.324645   
     18. A(C   1,C   0,H   7)          110.2211         0.324564   
     19. A(N   2,C   1,H   9)          108.3116         0.331434   
     20. A(N   2,C   1,C   3)          115.1207         0.373954   
     21. A(C   0,C   1,N   2)          109.7114         0.372530   
     22. A(C   0,C   1,C   3)          107.5457         0.363541   
     23. A(C   3,C   1,H   9)          107.1183         0.323748   
     24. A(C   0,C   1,H   9)          108.8693         0.322575   
     25. A(H  10,N   2,H  11)          107.6729         0.301731   
     26. A(C   1,N   2,H  11)          110.8045         0.339290   
     27. A(C   1,N   2,H  10)          110.0960         0.339124   
     28. A(O   4,C   3,O   5)          122.4407         0.483510   
     29. A(C   1,C   3,O   5)          125.0340         0.438678   
     30. A(C   1,C   3,O   4)          112.5182         0.400295   
     31. A(C   3,O   4,H  12)          110.3220         0.372637   
     32. D(N   2,C   1,C   0,H   6)     62.4111         0.010945   
     33. D(N   2,C   1,C   0,H   7)   -177.1095         0.010945   
     34. D(C   3,C   1,C   0,H   8)    177.3094         0.010945   
     35. D(C   3,C   1,C   0,H   7)     57.0004         0.010945   
     36. D(C   3,C   1,C   0,H   6)    -63.4790         0.010945   
     37. D(N   2,C   1,C   0,H   8)    -56.8005         0.010945   
     38. D(H  10,N   2,C   1,C   0)    -61.5014         0.017462   
     39. D(H  11,N   2,C   1,C   0)    179.4976         0.017462   
     40. D(H  10,N   2,C   1,H   9)    179.7847         0.017462   
     41. D(H  11,N   2,C   1,C   3)    -59.0580         0.017462   
     42. D(H  10,N   2,C   1,C   3)     59.9430         0.017462   
     43. D(O   4,C   3,C   1,H   9)   -141.0083         0.010685   
     44. D(O   4,C   3,C   1,N   2)    -20.5108         0.010685   
     45. D(O   5,C   3,C   1,C   0)    -76.9426         0.010685   
     46. D(O   4,C   3,C   1,C   0)    102.1007         0.010685   
     47. D(O   5,C   3,C   1,N   2)    160.4459         0.010685   
     48. D(H  12,O   4,C   3,O   5)      0.7126         0.033195   
     49. D(H  12,O   4,C   3,C   1)   -178.3592         0.033195   
    -----------------------------------------------------------------

Number of atoms                         .... 13
Number of degrees of freedom            .... 49


         *************************************************************
         *                GEOMETRY OPTIMIZATION CYCLE   1            *
         *************************************************************
---------------------------------
CARTESIAN COORDINATES (ANGSTROEM)
---------------------------------
  C     -1.370227    0.440711    0.478692
  C     -0.259666    0.046850   -0.501297
  N     -0.252306   -1.390050   -0.679184
  C      1.046062    0.642096    0.019453
  O      1.818151   -0.268825    0.630905
  O      1.364770    1.796744   -0.077183
  H     -1.182210   -0.000600    1.455339
  H     -1.416418    1.521217    0.579207
  H     -2.320030    0.069453    0.106045
  H     -0.462131    0.513157   -1.472659
  H     -0.063261   -1.849897    0.205358
  H      0.471989   -1.668419   -1.331790
  H      2.625277    0.147564    0.971035

----------------------------
CARTESIAN COORDINATES (A.U.)
----------------------------
  NO LB      ZA    FRAG     MASS         X           Y           Z
   0 C     6.0000    0    12.011   -2.589354    0.832822    0.904597
   1 C     6.0000    0    12.011   -0.490698    0.088533   -0.947314
   2 N     7.0000    0    14.007   -0.476790   -2.626814   -1.283472
   3 C     6.0000    0    12.011    1.976770    1.213385    0.036761
   4 O     8.0000    0    15.999    3.435807   -0.508006    1.192237
   5 O     8.0000    0    15.999    2.579041    3.395355   -0.145855
   6 H     1.0000    0     1.008   -2.234052   -0.001135    2.750193
   7 H     1.0000    0     1.008   -2.676642    2.874683    1.094543
   8 H     1.0000    0     1.008   -4.384221    0.131248    0.200396
   9 H     1.0000    0     1.008   -0.873301    0.969726   -2.782922
  10 H     1.0000    0     1.008   -0.119547   -3.495799    0.388070
  11 H     1.0000    0     1.008    0.891931   -3.152854   -2.516719
  12 H     1.0000    0     1.008    4.961055    0.278856    1.834991

--------------------------------
INTERNAL COORDINATES (ANGSTROEM)
--------------------------------
 C      0   0   0     0.000000000000     0.00000000     0.00000000
 C      1   0   0     1.532596120236     0.00000000     0.00000000
 N      2   1   0     1.447887634245   109.71139766     0.00000000
 C      2   1   3     1.526572510866   107.54570269   234.10986978
 O      4   2   1     1.341555707954   112.51817679   102.10072513
 O      4   2   1     1.201718147280   125.03398508   283.05741939
 H      1   2   3     1.088092519023   110.15103370    62.41110571
 H      1   2   3     1.086153929094   110.22109112   182.89050363
 H      1   2   3     1.085736085365   109.06032367   303.19954461
 H      2   1   3     1.096347669240   108.86934993   118.36892535
 H      3   2   1     1.014697646557   110.09597591   298.49857707
 H      3   2   1     1.013897804344   110.80449838   179.49760354
 H      5   4   2     0.969805518979   110.32203888   181.64079276

---------------------------
INTERNAL COORDINATES (A.U.)
---------------------------
 C      0   0   0     0.000000000000     0.00000000     0.00000000
 C      1   0   0     2.896186941157     0.00000000     0.00000000
 N      2   1   0     2.736111101413   109.71139766     0.00000000
 C      2   1   3     2.884803969109   107.54570269   234.10986978
 O      4   2   1     2.535172881431   112.51817679   102.10072513
 O      4   2   1     2.270918188522   125.03398508   283.05741939
 H      1   2   3     2.056196869322   110.15103370    62.41110571
 H      1   2   3     2.052533465270   110.22109112   182.89050363
 H      1   2   3     2.051743855055   109.06032367   303.19954461
 H      2   1   3     2.071796842427   108.86934993   118.36892535
 H      3   2   1     1.917500660727   110.09597591   298.49857707
 H      3   2   1     1.915989177994   110.80449838   179.49760354
 H      5   4   2     1.832666834036   110.32203888   181.64079276

---------------------
BASIS SET INFORMATION
---------------------
There are 4 groups of distinct atoms

 Group   1 Type C   : 11s6p2d1f contracted to 5s3p2d1f pattern {62111/411/11/1}
 Group   2 Type N   : 11s6p2d1f contracted to 5s3p2d1f pattern {62111/411/11/1}
 Group   3 Type O   : 11s6p2d1f contracted to 5s3p2d1f pattern {62111/411/11/1}
 Group   4 Type H   : 5s1p contracted to 3s1p pattern {311/1}

Atom   0C    basis set group =>   1
Atom   1C    basis set group =>   1
Atom   2N    basis set group =>   2
Atom   3C    basis set group =>   1
Atom   4O    basis set group =>   3
Atom   5O    basis set group =>   3
Atom   6H    basis set group =>   4
Atom   7H    basis set group =>   4
Atom   8H    basis set group =>   4
Atom   9H    basis set group =>   4
Atom  10H    basis set group =>   4
Atom  11H    basis set group =>   4
Atom  12H    basis set group =>   4

-------------------------
BASIS SET IN INPUT FORMAT
-------------------------

 # Basis set for element : H 
 NewGTO H 
 S 3 
   1      34.0613410000      0.0254393072
   2       5.1235746000      0.1900859489
   3       1.1646626000      0.8524411301
 S 1 
   1       0.3272304100      1.0000000000
 S 1 
   1       0.1030724100      1.0000000000
 P 1 
   1       0.8000000000      1.0000000000
  end;

 # Basis set for element : C 
 NewGTO C 
 S 6 
   1   13575.3496820000      0.0006064549
   2    2035.2333680000      0.0046979088
   3     463.2256235900      0.0243324776
   4     131.2001959800      0.0973999683
   5      42.8530158910      0.3019558425
   6      15.5841857660      0.6623360915
 S 2 
   1       6.2067138508      0.6559530854
   2       2.5764896527      0.3758563329
 S 1 
   1       0.5769633942      1.0000000000
 S 1 
   1       0.2297283136      1.0000000000
 S 1 
   1       0.0951644400      1.0000000000
 P 4 
   1      34.6972322440      0.0113272200
   2       7.9582622826      0.0761696592
   3       2.3780826883      0.3019225220
   4       0.8143320818      0.7278502735
 P 1 
   1       0.2888754725      1.0000000000
 P 1 
   1       0.1005682367      1.0000000000
 D 1 
   1       1.0970000000      1.0000000000
 D 1 
   1       0.3180000000      1.0000000000
 F 1 
   1       0.7610000000      1.0000000000
  end;

 # Basis set for element : N 
 NewGTO N 
 S 6 
   1   19730.8006470000      0.0005862639
   2    2957.8958745000      0.0045428821
   3     673.2213359500      0.0235584136
   4     190.6824949400      0.0947091933
   5      62.2954418980      0.2971978492
   6      22.6541611820      0.6691624689
 S 2 
   1       8.9791477428      0.6459668363
   2       3.6863002370      0.3870057440
 S 1 
   1       0.8466007680      1.0000000000
 S 1 
   1       0.3364713377      1.0000000000
 S 1 
   1       0.1364765367      1.0000000000
 P 4 
   1      49.2003805100      0.0114488252
   2      11.3467905370      0.0784223379
   3       3.4273972411      0.3081809474
   4       1.1785525134      0.7202719637
 P 1 
   1       0.4164220497      1.0000000000
 P 1 
   1       0.1426082601      1.0000000000
 D 1 
   1       1.6540000000      1.0000000000
 D 1 
   1       0.4690000000      1.0000000000
 F 1 
   1       1.0930000000      1.0000000000
  end;

 # Basis set for element : O 
 NewGTO O 
 S 6 
   1   27032.3826310000      0.0005722733
   2    4052.3871392000      0.0044353233
   3     922.3272271000      0.0230201076
   4     261.2407098900      0.0928224906
   5      85.3546413510      0.2937850002
   6      31.0350352450      0.6740160450
 S 2 
   1      12.2608607280      0.6383993702
   2       4.9987076005      0.3953458713
 S 1 
   1       1.1703108158      1.0000000000
 S 1 
   1       0.4647474099      1.0000000000
 S 1 
   1       0.1850453636      1.0000000000
 P 4 
   1      63.2749548010      0.0120183321
   2      14.6270493790      0.0830054217
   3       4.4501223456      0.3199174393
   4       1.5275799647      0.7071554292
 P 1 
   1       0.5293511794      1.0000000000
 P 1 
   1       0.1747842127      1.0000000000
 D 1 
   1       2.3140000000      1.0000000000
 D 1 
   1       0.6450000000      1.0000000000
 F 1 
   1       1.4280000000      1.0000000000
  end;

---------------------------------
AUXILIARY/J BASIS SET INFORMATION
---------------------------------
There are 4 groups of distinct atoms

 Group   1 Type C   : 12s5p4d2f1g contracted to 6s4p3d1f1g pattern {711111/2111/211/2/1}
 Group   2 Type N   : 12s5p4d2f1g contracted to 6s4p3d1f1g pattern {711111/2111/211/2/1}
 Group   3 Type O   : 12s5p4d2f1g contracted to 6s4p3d1f1g pattern {711111/2111/211/2/1}
 Group   4 Type H   : 5s2p1d contracted to 3s1p1d pattern {311/2/1}

Atom   0C    basis set group =>   1
Atom   1C    basis set group =>   1
Atom   2N    basis set group =>   2
Atom   3C    basis set group =>   1
Atom   4O    basis set group =>   3
Atom   5O    basis set group =>   3
Atom   6H    basis set group =>   4
Atom   7H    basis set group =>   4
Atom   8H    basis set group =>   4
Atom   9H    basis set group =>   4
Atom  10H    basis set group =>   4
Atom  11H    basis set group =>   4
Atom  12H    basis set group =>   4

-------------------------------------
AUXILIARY/J BASIS SET IN INPUT FORMAT
-------------------------------------

 # Auxiliary/J basis set for element : H 
 NewAuxJGTO H 
 S 3 
   1      15.6752927000      0.1007184237
   2       3.6063578000      0.3404257499
   3       1.2080016000      0.6491996172
 S 1 
   1       0.4726794000      1.0000000000
 S 1 
   1       0.2018100000      1.0000000000
 P 2 
   1       2.0281365000      0.5596620919
   2       0.5358730000      0.5596620919
 D 1 
   1       2.2165124000      1.0000000000
  end;

 # Auxiliary/J basis set for element : C 
 NewAuxJGTO C 
 S 7 
   1    1861.0916331000      0.0134602335
   2     642.9939764000      0.0299160374
   3     235.1105725000      0.1008649584
   4      90.7028894000      0.2370970548
   5      36.7794552000      0.3924037254
   6      15.6046273000      0.3195862154
   7       6.8907294000      0.0530104441
 S 1 
   1       3.1478850000     -1.0000000000
 S 1 
   1       1.4777287000      1.0000000000
 S 1 
   1       0.7076466000      1.0000000000
 S 1 
   1       0.3430122000      1.0000000000
 S 1 
   1       0.1669453000      1.0000000000
 P 2 
   1      13.5472892000     -0.6769313712
   2       5.4669419000     -0.3779500978
 P 1 
   1       2.1751721000      1.0000000000
 P 1 
   1       0.8582194000      1.0000000000
 P 1 
   1       0.3376720000      1.0000000000
 D 2 
   1       5.9287253000     -0.3533329857
   2       1.9809209000     -0.7456525731
 D 1 
   1       0.8055417000     -1.0000000000
 D 1 
   1       0.3531244000     -1.0000000000
 F 2 
   1       1.6755626000      0.6311076882
   2       0.5997536000      0.4968166032
 G 1 
   1       1.0024600000     -1.0000000000
  end;

 # Auxiliary/J basis set for element : N 
 NewAuxJGTO N 
 S 7 
   1    2542.9401785000      0.0128431329
   2    1029.5472946000      0.0206655120
   3     424.9053546000      0.0652200677
   4     178.4573708000      0.1617388940
   5      76.1362742000      0.3094256941
   6      32.9338653000      0.3918849307
   7      14.4155436000      0.1822470660
 S 1 
   1       6.3718891000     -1.0000000000
 S 1 
   1       2.8381742000      1.0000000000
 S 1 
   1       1.2711793000      1.0000000000
 S 1 
   1       0.5712407000      1.0000000000
 S 1 
   1       0.2569887000      1.0000000000
 P 2 
   1      17.8975990000     -1.0974070137
   2       6.5346319000      0.1380055963
 P 1 
   1       2.3523645000      1.0000000000
 P 1 
   1       0.8397377000      1.0000000000
 P 1 
   1       0.2989335000      1.0000000000
 D 2 
   1       7.6909870000      0.1770780943
   2       2.3044972000      0.8918319220
 D 1 
   1       0.8403987000      1.0000000000
 D 1 
   1       0.3303797000      1.0000000000
 F 2 
   1       2.3331076000      0.6223178877
   2       0.8446137000      0.5036714203
 G 1 
   1       1.4037700000     -1.0000000000
  end;

 # Auxiliary/J basis set for element : O 
 NewAuxJGTO O 
 S 7 
   1    2876.8216605000      0.0168151159
   2    1004.7443032000      0.0340137548
   3     369.7579954000      0.1194951309
   4     142.9442404000      0.2664627624
   5      57.8366425000      0.4202764046
   6      24.3864983000      0.2765077335
   7      10.6622662000      0.0057008815
 S 1 
   1       4.8070437000     -1.0000000000
 S 1 
   1       2.2210770000      1.0000000000
 S 1 
   1       1.0447795000      1.0000000000
 S 1 
   1       0.4968425000      1.0000000000
 S 1 
   1       0.2371384000      1.0000000000
 P 2 
   1      64.2613382000     -0.2731534179
   2      16.3006076000     -0.8168011598
 P 1 
   1       4.3550542000      1.0000000000
 P 1 
   1       1.2019554000      1.0000000000
 P 1 
   1       0.3354196000      1.0000000000
 D 2 
   1       9.2146611000     -0.4661230638
   2       2.8435251000     -0.6600908911
 D 1 
   1       0.9955759000     -1.0000000000
 D 1 
   1       0.3649441000     -1.0000000000
 F 2 
   1       2.6420115000      0.5931563945
   2       0.7345613000      0.5931563945
 G 1 
   1       1.3931000000     -1.0000000000
  end;



           ************************************************************
           *        Program running with 16 parallel MPI-processes    *
           *              working on a common directory               *
           ************************************************************
------------------------------------------------------------------------------
                             ORCA STARTUP CALCULATIONS
                           -- RI-GTO INTEGRALS CHOSEN --
------------------------------------------------------------------------------
------------------------------------------------------------------------------
                   ___                                                        
                  /   \      - P O W E R E D   B Y -                         
                 /     \                                                     
                 |  |  |   _    _      __       _____    __    __             
                 |  |  |  | |  | |    /  \     |  _  \  |  |  /  |          
                  \  \/   | |  | |   /    \    | | | |  |  | /  /          
                 / \  \   | |__| |  /  /\  \   | |_| |  |  |/  /          
                |  |  |   |  __  | /  /__\  \  |    /   |      \           
                |  |  |   | |  | | |   __   |  |    \   |  |\   \          
                \     /   | |  | | |  |  |  |  | |\  \  |  | \   \       
                 \___/    |_|  |_| |__|  |__|  |_| \__\ |__|  \__/        
                                                                              
                      - O R C A' S   B I G   F R I E N D -                    
                                      &                                       
                       - I N T E G R A L  F E E D E R -                       
                                                                              
 v1 FN, 2020, v2 2021, v3 2022-2024                                           
------------------------------------------------------------------------------


----------------------
SHARK INTEGRAL PACKAGE
----------------------

Number of atoms                             ...     13
Number of basis functions                   ...    228
Number of shells                            ...     94
Maximum angular momentum                    ...      3
Integral batch strategy                     ... SHARK/LIBINT Hybrid
RI-J (if used) integral strategy            ... SPLIT-RIJ (Revised 2003 algorithm where possible)
Printlevel                                  ...      1
Contraction scheme used                     ... SEGMENTED contraction
Prescreening option                         ... SCHWARTZ
   Thresh                                   ... 2.500e-11
   Tcut                                     ... 2.500e-12
   Tpresel                                  ... 2.500e-12 
Coulomb Range Separation                    ... NOT USED
Exchange Range Separation                   ... NOT USED
Multipole approximations                    ... NOT USED
Finite Nucleus Model                        ... NOT USED
CABS basis                                  ... NOT available
Auxiliary Coulomb fitting basis             ... AVAILABLE
   # of basis functions in Aux-J            ...    371
   # of shells in Aux-J                     ...    125
   Maximum angular momentum in Aux-J        ...      4
Auxiliary J/K fitting basis                 ... NOT available
Auxiliary Correlation fitting basis         ... NOT available
Auxiliary 'external' fitting basis          ... NOT available

Checking pre-screening integrals            ... done (  0.0 sec) Dimension = 94
Check shell pair data                       ... done (  0.0 sec)
Shell pair information
Shell pair cut-off parameter TPreSel        ...   2.5e-12
Total number of shell pairs                 ...      4465
Shell pairs after pre-screening             ...      4251
Total number of primitive shell pairs       ...     13356
Primitive shell pairs kept                  ...      9899
          la=0 lb=0:   1218 shell pairs
          la=1 lb=0:   1227 shell pairs
          la=1 lb=1:    321 shell pairs
          la=2 lb=0:    580 shell pairs
          la=2 lb=1:    295 shell pairs
          la=2 lb=2:     77 shell pairs
          la=3 lb=0:    292 shell pairs
          la=3 lb=1:    150 shell pairs
          la=3 lb=2:     70 shell pairs
          la=3 lb=3:     21 shell pairs

Calculating one electron integrals          ... done (  0.0 sec)
Calculating RI/J V-Matrix + Cholesky decomp.... done (  0.0 sec)
Calculating Nuclear repulsion               ... done (  0.0 sec) ENN=    250.520315832552 Eh

Diagonalization of the overlap matrix:
Smallest eigenvalue                        ... 2.317e-04
Time for diagonalization                   ...    0.005 sec
Threshold for overlap eigenvalues          ... 1.000e-07
Number of eigenvalues below threshold      ... 0
Time for construction of square roots      ...    0.002 sec
Total time needed                          ...    0.007 sec

-------------------
DFT GRID GENERATION
-------------------

General Integration Accuracy     IntAcc      ... 4.388
Radial Grid Type                 RadialGrid  ... OptM3 with GC (2021)
Angular Grid (max. ang.)         AngularGrid ... 4 (Lebedev-302)
Angular grid pruning method      GridPruning ... 4 (adaptive)
Weight generation scheme         WeightScheme... mBecke (2022)
Basis function cutoff            BFCut       ... 1.0000e-11
Integration weight cutoff        WCut        ... 1.0000e-14
Partially contracted basis set               ... off
Rotationally invariant grid construction     ... off
Angular grids for H and He will be reduced by one unit

Total number of grid points                  ...    58907
Total number of batches                      ...      927
Average number of points per batch           ...       63
Average number of grid points per atom       ...     4531

--------------------
COSX GRID GENERATION
--------------------

GRIDX 1
-------
General Integration Accuracy     IntAcc      ... 3.816
Radial Grid Type                 RadialGrid  ... OptM3 with GC (2021)
Angular Grid (max. ang.)         AngularGrid ... 1 (Lebedev-50)
Angular grid pruning method      GridPruning ... 4 (adaptive)
Weight generation scheme         WeightScheme... mBecke (2022)
Basis function cutoff            BFCut       ... 1.0000e-11
Integration weight cutoff        WCut        ... 1.0000e-14
Partially contracted basis set               ... on
Rotationally invariant grid construction     ... off
Angular grids for H and He will be reduced by one unit

Total number of grid points                  ...     7547
Total number of batches                      ...       67
Average number of points per batch           ...      112
Average number of grid points per atom       ...      581
UseSFitting                                  ... on

GRIDX 2
-------
General Integration Accuracy     IntAcc      ... 4.020
Radial Grid Type                 RadialGrid  ... OptM3 with GC (2021)
Angular Grid (max. ang.)         AngularGrid ... 2 (Lebedev-110)
Angular grid pruning method      GridPruning ... 4 (adaptive)
Weight generation scheme         WeightScheme... mBecke (2022)
Basis function cutoff            BFCut       ... 1.0000e-11
Integration weight cutoff        WCut        ... 1.0000e-14
Partially contracted basis set               ... on
Rotationally invariant grid construction     ... off
Angular grids for H and He will be reduced by one unit

Total number of grid points                  ...    16304
Total number of batches                      ...      134
Average number of points per batch           ...      121
Average number of grid points per atom       ...     1254
UseSFitting                                  ... on

GRIDX 3
-------
General Integration Accuracy     IntAcc      ... 4.338
Radial Grid Type                 RadialGrid  ... OptM3 with GC (2021)
Angular Grid (max. ang.)         AngularGrid ... 3 (Lebedev-194)
Angular grid pruning method      GridPruning ... 4 (adaptive)
Weight generation scheme         WeightScheme... mBecke (2022)
Basis function cutoff            BFCut       ... 1.0000e-11
Integration weight cutoff        WCut        ... 1.0000e-14
Partially contracted basis set               ... on
Rotationally invariant grid construction     ... off
Angular grids for H and He will be reduced by one unit

Total number of grid points                  ...    35845
Total number of batches                      ...      287
Average number of points per batch           ...      124
Average number of grid points per atom       ...     2757
UseSFitting                                  ... on
Initializing property integral containers    ... done (  0.0 sec)

SHARK setup successfully completed in   0.4 seconds

Maximum memory used throughout the entire STARTUP-calculation: 19.7 MB


           ************************************************************
           *        Program running with 16 parallel MPI-processes    *
           *              working on a common directory               *
           ************************************************************
-------------------------------------------------------------------------------
                                 ORCA GUESS
                   Start orbitals & Density for SCF / CASSCF
-------------------------------------------------------------------------------

------------
SCF SETTINGS
------------
Hamiltonian:
 Density Functional     Method          .... DFT(GTOs)
 Exchange Functional    Exchange        .... PBE
   PBE kappa parameter   XKappa         ....  0.804000
   PBE mue parameter    XMuePBE         ....  0.219520
 Correlation Functional Correlation     .... PBE
   PBE beta parameter  CBetaPBE         ....  0.066725
 LDA part of GGA corr.  LDAOpt          .... PW91-LDA
 Gradients option       PostSCFGGA      .... off
 Hybrid DFT is turned on
   Fraction HF Exchange ScalHFX         ....  0.250000
   Scaling of DF-GGA-X  ScalDFX         ....  0.750000
   Scaling of DF-GGA-C  ScalDFC         ....  1.000000
   Scaling of DF-LDA-C  ScalLDAC        ....  1.000000
   Perturbative correction              ....  0.000000
   NL short-range parameter             ....  6.900000
 RI-approximation to the Coulomb term is turned on
   Number of AuxJ basis functions       .... 371
   RIJ-COSX (HFX calculated with COS-X)).... on


General Settings:
 Integral files         IntName         .... alanine_cpcm
 Hartree-Fock type      HFTyp           .... RHF
 Total Charge           Charge          ....    0
 Multiplicity           Mult            ....    1
 Number of Electrons    NEL             ....   48
 Basis Dimension        Dim             ....  228
 Nuclear Repulsion      ENuc            ....    250.5203158326 Eh

Convergence Acceleration:
 AO-DIIS                CNVDIIS         .... on
   Start iteration      DIISMaxIt       ....    12
   Startup error        DIISStart       ....  0.200000
   # of expansion vecs  DIISMaxEq       ....     5
   Bias factor          DIISBfac        ....   1.050
   Max. coefficient     DIISMaxC        ....  10.000
 MO-DIIS                CNVKDIIS        .... off
 Trust-Rad. Augm. Hess. CNVTRAH         .... auto
   Auto Start mean grad. ratio tolernc. ....  1.125000
   Auto Start start iteration           ....    50
   Auto Start num. interpolation iter.  ....    10
   Max. Number of Micro iterations      ....    24
   Max. Number of Macro iterations      .... Maxiter - #DIIS iter
   Number of Davidson start vectors     ....     2
   Converg. threshold    (grad. norm)   ....   1.000e-05
   Grad. Scal. Fac. for Micro threshold ....   0.100
   Minimum threshold for Micro iter.    ....   1.000e-02
   NR start threshold (gradient norm)   ....   1.000e-04
   Initial trust radius                 ....   0.400
   Minimum AH scaling param. (alpha)    ....   1.000
   Maximum AH scaling param. (alpha)    .... 1000.000
   Quad. conv. algorithm                .... NR
   White noise on init. David. guess    .... on
   Maximum white noise                  ....   0.010
   Pseudo random numbers                .... off
   Inactive MOs                         .... canonical
   Orbital update algorithm             .... Taylor
   Preconditioner                       .... Diag
   Full preconditioner red. dimension   ....   250
 SOSCF                  CNVSOSCF        .... on
   Start iteration      SOSCFMaxIt      ....   150
   Startup grad/error   SOSCFStart      ....  0.003300
   Hessian update       SOSCFHessUp     .... L-BFGS
 Level Shifting         CNVShift        .... on
   Level shift para.    LevelShift      ....    0.2500
   Turn off err/grad.   ShiftErr        ....    0.0010
 Zerner damping         CNVZerner       .... off
 Static damping         CNVDamp         .... on
   Fraction old density DampFac         ....    0.7000
   Max. Damping (<1)    DampMax         ....    0.9800
   Min. Damping (>=0)   DampMin         ....    0.0000
   Turn off err/grad.   DampErr         ....    0.1000

SCF Procedure:
 Maximum # iterations   MaxIter         ....   125
 SCF integral mode      SCFMode         .... Direct
   Integral package                     .... SHARK and LIBINT hybrid scheme
 Reset frequency        DirectResetFreq ....    20
 Integral Threshold     Thresh          ....  2.500e-11 Eh
 Primitive CutOff       TCut            ....  2.500e-12 Eh

Convergence Tolerance:
 Convergence Check Mode ConvCheckMode   .... Total+1el-Energy
 Convergence forced     ConvForced      .... 0
 Energy Change          TolE            ....  1.000e-08 Eh
 1-El. energy change                    ....  1.000e-05 Eh
 Orbital Gradient       TolG            ....  1.000e-05
 Orbital Rotation angle TolX            ....  1.000e-05
 DIIS Error             TolErr          ....  5.000e-07

------------------------------
INITIAL GUESS: MODEL POTENTIAL
------------------------------
Loading Hartree-Fock densities                     ... done
Calculating cut-offs                               ... done
Initializing the effective Hamiltonian             ... done
Setting up the integral package (SHARK)            ... done
Starting the Coulomb interaction                   ... done (   0.0 sec)
Making the grid                                    ... done (   0.0 sec)
Mapping shells                                     ... done
Starting the XC term evaluation                    ... done (   0.0 sec)
  promolecular density results
     # of electrons  =     47.998802848
     EX              =    -40.263553668
     EC              =     -1.594284243
     EX+EC           =    -41.857837912
Transforming the Hamiltonian                       ... done (   0.0 sec)
Diagonalizing the Hamiltonian                      ... done (   0.0 sec)
Back transforming the eigenvectors                 ... done (   0.0 sec)
Now organizing SCF variables                       ... done
                      ------------------
                      INITIAL GUESS DONE (   0.1 sec)
                      ------------------
             **** ENERGY FILE WAS UPDATED (alanine_cpcm.en.tmp) ****
Finished Guess after   0.3 sec
Maximum memory used throughout the entire GUESS-calculation: 13.0 MB


           ************************************************************
           *        Program running with 16 parallel MPI-processes    *
           *              working on a common directory               *
           ************************************************************

-------------------------------------------------------------------------------------------
                                      ORCA LEAN-SCF
                              memory conserving SCF solver
-------------------------------------------------------------------------------------------

--------------------
CPCM SOLVATION MODEL
--------------------
CPCM parameters:
  Epsilon                                         ...      78.3900
  Refrac                                          ...       1.0000
  Rsolv                                           ...       1.4000
  Surface type                                    ... GAUSSIAN VDW
  Discretization scheme                           ... Constant charge density
    Threshold for H atoms                         ...       5.0000 (charges/Ang^2)
    Threshold for non-H atoms                     ...       5.0000 (charges/Ang^2)
  Epsilon function type                           ...         CPCM
Solvent:                                          ... CUSTOM
Radii:
  Scheme                                          ... Element-dependent radii
  Radius for C  used is    3.8550 Bohr (=   2.0400 Ang.)
  Radius for N  used is    3.5149 Bohr (=   1.8600 Ang.)
  Radius for O  used is    3.4469 Bohr (=   1.8240 Ang.)
  Radius for H  used is    2.4944 Bohr (=   1.3200 Ang.)
Calculating surface                               ...        done! (  0.0s)
Cavity surface points                             ...         1140
Cavity Volume                                     ...     760.3375
Cavity Surface-area                               ...     470.1546
Calculating surface distance matrix               ...        done! (  0.0s)
Performing Cholesky decomposition & store         ...        done! (  0.0s)
Overall time for CPCM initialization              ...                 0.0s

----------------------------------------D-I-I-S--------------------------------------------
Iteration    Energy (Eh)           Delta-E    RMSDP     MaxDP     DIISErr   Damp  Time(sec)
-------------------------------------------------------------------------------------------
               ***  Starting incremental Fock matrix formation  ***
    1    -323.2831590950167993     0.00e+00  1.87e-03  8.34e-02  2.79e-01  0.700   0.5
    2    -323.4022606459534472    -1.19e-01  1.40e-03  7.65e-02  1.26e-01  0.700   0.3
                               ***Turning on AO-DIIS***
    3    -323.4463121110975408    -4.41e-02  5.18e-04  1.96e-02  4.05e-02  0.700   0.3
    4    -323.4730272794942039    -2.67e-02  7.05e-04  1.86e-02  1.72e-02  0.000   0.3
    5    -323.5325216246035325    -5.95e-02  2.86e-04  1.90e-02  7.77e-03  0.000   0.4
                              *** Initializing SOSCF ***
---------------------------------------S-O-S-C-F--------------------------------------
Iteration    Energy (Eh)           Delta-E    RMSDP     MaxDP     MaxGrad    Time(sec)
--------------------------------------------------------------------------------------
    6    -323.5328125147070750    -2.91e-04  9.86e-05  5.96e-03  2.09e-03     0.4
               *** Restarting incremental Fock matrix formation ***
    7    -323.5328450855541860    -3.26e-05  5.91e-05  3.36e-03  1.45e-04     0.5
    8    -323.5328462088828019    -1.12e-06  1.33e-05  4.83e-04  1.01e-04     0.5
    9    -323.5328468517210467    -6.43e-07  9.77e-06  5.68e-04  4.57e-05     0.4
   10    -323.5328468732783449    -2.16e-08  1.76e-06  5.72e-05  5.19e-05     0.4
   11    -323.5328469022462059    -2.90e-08  2.50e-06  1.20e-04  1.29e-05     0.4
   12    -323.5328469028298741    -5.84e-10  5.30e-07  2.31e-05  8.48e-06     0.4
                 **** Energy Check signals convergence ****

               *****************************************************
               *                     SUCCESS                       *
               *           SCF CONVERGED AFTER  12 CYCLES          *
               *****************************************************

Recomputing exchange energy using gridx3       ... done (    0.656 sec)
Old exchange energy                            :    -10.286791995 Eh
New exchange energy                            :    -10.286814166 Eh
Exchange energy change after final integration :     -0.000022171 Eh
Total energy after final integration           :   -323.532869074 Eh
             **** ENERGY FILE WAS UPDATED (alanine_cpcm.en.tmp) ****

----------------
TOTAL SCF ENERGY
----------------

Total Energy       :       -323.53286907394329 Eh           -8803.77694 eV

Components:
Nuclear Repulsion  :        250.52031583255214 Eh            6817.00436 eV
Electronic Energy  :       -574.03606143929642 Eh          -15620.31535 eV
One Electron Energy:       -937.17370471537231 Eh          -25501.79299 eV
Two Electron Energy:        363.13764327607583 Eh            9881.47764 eV
CPCM Dielectric    :         -0.01710129608540 Eh              -0.46535 eV

Virial components:
Potential Energy   :       -645.65323924642712 Eh          -17569.11784 eV
Kinetic Energy     :        322.12037017248383 Eh            8765.34089 eV
Virial Ratio       :          2.00438500334736

DFT components:
N(Alpha)           :       23.999967729181 electrons
N(Beta)            :       23.999967729181 electrons
N(Total)           :       47.999935458362 electrons
E(X)               :      -30.800810744066 Eh       
E(C)               :       -1.606247510870 Eh       
E(XC)              :      -32.407058254936 Eh       

CPCM Solvation Model Properties:
Surface-charge          :         -0.01875868728379
Corrected charge        :          0.00000000000000
Outlying charge corr.   :          0.00002938907240 Eh               0.00080 eV
Free-energy (cav+disp)  :  This term is not implemented in the current solvation scheme

---------------
SCF CONVERGENCE
---------------

  Last Energy change         ...    5.8367e-10  Tolerance :   1.0000e-08
  Last MAX-Density change    ...    2.3114e-05  Tolerance :   1.0000e-07
  Last RMS-Density change    ...    5.3009e-07  Tolerance :   5.0000e-09
  Last DIIS Error            ...    2.0871e-03  Tolerance :   5.0000e-07
  Last Orbital Gradient      ...    8.4761e-06  Tolerance :   1.0000e-05
  Last Orbital Rotation      ...    6.4799e-06  Tolerance :   1.0000e-05


----------------
ORBITAL ENERGIES
----------------

  NO   OCC          E(Eh)            E(eV) 
   0   2.0000     -19.254598      -523.9442 
   1   2.0000     -19.199691      -522.4501 
   2   2.0000     -14.364670      -390.8825 
   3   2.0000     -10.354167      -281.7512 
   4   2.0000     -10.266068      -279.3539 
   5   2.0000     -10.213825      -277.9323 
   6   2.0000      -1.144009       -31.1301 
   7   2.0000      -1.053245       -28.6602 
   8   2.0000      -0.922895       -25.1132 
   9   2.0000      -0.772222       -21.0132 
  10   2.0000      -0.687615       -18.7110 
  11   2.0000      -0.617647       -16.8070 
  12   2.0000      -0.526824       -14.3356 
  13   2.0000      -0.520150       -14.1540 
  14   2.0000      -0.507416       -13.8075 
  15   2.0000      -0.469950       -12.7880 
  16   2.0000      -0.446399       -12.1471 
  17   2.0000      -0.430226       -11.7071 
  18   2.0000      -0.391176       -10.6444 
  19   2.0000      -0.382460       -10.4073 
  20   2.0000      -0.370652       -10.0860 
  21   2.0000      -0.342808        -9.3283 
  22   2.0000      -0.323305        -8.7976 
  23   2.0000      -0.258183        -7.0255 
  24   0.0000       0.007269         0.1978 
  25   0.0000       0.043650         1.1878 
  26   0.0000       0.082894         2.2557 
  27   0.0000       0.091740         2.4964 
  28   0.0000       0.095409         2.5962 
  29   0.0000       0.130683         3.5561 
  30   0.0000       0.138453         3.7675 
  31   0.0000       0.147509         4.0139 
  32   0.0000       0.152331         4.1451 
  33   0.0000       0.180639         4.9154 
  34   0.0000       0.199695         5.4340 
*Only the first 10 virtual orbitals were printed.
------------------
MOLECULAR ORBITALS (RHF, ROHF)
------------------
                      0         1         2         3         4         5   
                 -19.25460 -19.19969 -14.36467 -10.35417 -10.26607 -10.21382
                   2.00000   2.00000   2.00000   2.00000   2.00000   2.00000
                  --------  --------  --------  --------  --------  --------
  0C   1s        -0.000003 -0.000004 -0.000002 -0.000016  0.001022  0.467111
  0C   2s         0.000015  0.000020  0.000009  0.000027  0.001395  0.608643
  0C   3s        -0.000154 -0.000000 -0.000023 -0.000519 -0.000028  0.034954
  0C   4s        -0.000422 -0.001129 -0.001590  0.000799  0.003491 -0.017333
  0C   5s         0.005328  0.004146 -0.003027 -0.001604 -0.016354  0.027897
  0C   1pz        0.000012 -0.000006  0.000008  0.000029 -0.000148 -0.000262
  0C   1px       -0.000111 -0.000049  0.000014 -0.000177  0.000206  0.000456
  0C   1py        0.000019  0.000015  0.000058 -0.000006 -0.000067 -0.000136
  0C   2pz        0.000268  0.000730  0.000374  0.000026 -0.000437  0.001021
  0C   2px        0.000076 -0.000480 -0.000975 -0.000210  0.000155 -0.001622
  0C   2py        0.000161  0.000157  0.000055 -0.000094 -0.000147  0.000469
  0C   3pz       -0.000993  0.000214  0.001271  0.000030  0.003449 -0.000672
  0C   3px        0.001489  0.001764 -0.000880 -0.001636 -0.003835  0.001921
  0C   3py        0.000883 -0.000947  0.000156 -0.000172  0.001506 -0.000235
  0C   1dz2       0.000038  0.000049  0.000036  0.000078 -0.000010 -0.000041
  0C   1dxz       0.000013  0.000005  0.000013 -0.000021  0.000093  0.000066
  0C   1dyz       0.000027 -0.000002  0.000012 -0.000031 -0.000081 -0.000015
  0C   1dx2y2    -0.000061 -0.000048  0.000011 -0.000131 -0.000075 -0.000037
  0C   1dxy       0.000007  0.000034 -0.000009 -0.000061  0.000005  0.000019
  0C   2dz2      -0.000149 -0.000061 -0.000343 -0.000303 -0.000155 -0.000024
  0C   2dxz       0.000025  0.000331  0.000151  0.000332  0.000854  0.000807
  0C   2dyz      -0.000240 -0.000247  0.000289  0.000287 -0.000048 -0.000299
  0C   2dx2y2     0.000081 -0.000187 -0.000897  0.000481 -0.000121 -0.000270
  0C   2dxy       0.000031 -0.000037 -0.000147  0.000396  0.000610  0.000410
  0C   1f0        0.000019 -0.000010  0.000017  0.000036 -0.000176  0.000547
  0C   1f+1      -0.000016  0.000009 -0.000007 -0.000007 -0.000373  0.000467
  0C   1f-1      -0.000000 -0.000014 -0.000031 -0.000002  0.000021 -0.000871
  0C   1f+2       0.000002  0.000051  0.000115 -0.000024  0.000425 -0.000697
  0C   1f-2      -0.000018 -0.000037  0.000050 -0.000002 -0.000512 -0.000387
  0C   1f+3       0.000005  0.000031  0.000176 -0.000012  0.000171  0.000122
  0C   1f-3       0.000012 -0.000054  0.000019 -0.000006 -0.000175  0.000990
  1C   1s         0.000005  0.000008 -0.000009  0.000619  0.467221 -0.001076
  1C   2s        -0.000025 -0.000039  0.000047  0.000863  0.608567 -0.001356
  1C   3s        -0.000038 -0.000364  0.001515 -0.000229  0.035988  0.000486
  1C   4s         0.003143  0.004507 -0.007496  0.005945 -0.021140 -0.001098
  1C   5s        -0.003900 -0.005473  0.019104 -0.003940  0.045034  0.003587
  1C   1pz        0.000024 -0.000025 -0.000021  0.000065  0.000551  0.000222
  1C   1px        0.000085  0.000122  0.000009  0.000077  0.000272 -0.000299
  1C   1py       -0.000030 -0.000104 -0.000179  0.000069 -0.000212  0.000191
  1C   2pz        0.000944  0.001176  0.001270  0.001068 -0.003889 -0.001070
  1C   2px        0.001746  0.001335 -0.000152  0.003636 -0.000311 -0.000111
  1C   2py        0.001152  0.003049  0.008276  0.001609 -0.002604 -0.002047
  1C   3pz       -0.000959 -0.002288  0.000575  0.000358  0.003812  0.000374
  1C   3px        0.000724  0.000543  0.000125 -0.002833  0.000231  0.004506
  1C   3py       -0.003231  0.002342 -0.002242 -0.001961  0.001682 -0.002276
  1C   1dz2      -0.000047 -0.000083  0.000081  0.000018 -0.000115  0.000058
  1C   1dxz       0.000090  0.000090  0.000006  0.000027  0.000028  0.000036
  1C   1dyz      -0.000012 -0.000020 -0.000160 -0.000031  0.000061 -0.000018
  1C   1dx2y2    -0.000012 -0.000002  0.000295 -0.000091 -0.000305 -0.000052
  1C   1dxy       0.000059  0.000070 -0.000014  0.000013  0.000042 -0.000051
  1C   2dz2       0.000032  0.000310  0.002191 -0.000038  0.000316 -0.000827
  1C   2dxz      -0.000044 -0.000161 -0.000158 -0.000048  0.000740  0.001486
  1C   2dyz       0.000412  0.000612  0.000107 -0.000124 -0.000801 -0.000607
  1C   2dx2y2     0.001113  0.001274  0.002871  0.000757 -0.001819 -0.001587
  1C   2dxy       0.000418  0.000917  0.000350 -0.000342  0.000024  0.000710
  1C   1f0       -0.000010 -0.000049 -0.000002  0.000219 -0.000225  0.000293
  1C   1f+1      -0.000002 -0.000065  0.000024  0.000144 -0.000324  0.000462
  1C   1f-1      -0.000069 -0.000030 -0.000163  0.000128  0.000968 -0.000001
  1C   1f+2      -0.000044 -0.000018 -0.000069 -0.000155  0.000468 -0.000503
  1C   1f-2       0.000103  0.000092 -0.000021 -0.000377  0.000229  0.000521
  1C   1f+3       0.000022 -0.000048 -0.000001  0.000190 -0.000085 -0.000253
  1C   1f-3      -0.000083 -0.000088  0.000140  0.000536 -0.000692  0.000123
  2N   1s        -0.000003 -0.000003 -0.448651  0.000002 -0.000029  0.000002
  2N   2s         0.000020  0.000021 -0.626953 -0.000015 -0.000104 -0.000008
  2N   3s        -0.000285 -0.000357 -0.035838 -0.000052  0.001264  0.000168
  2N   4s         0.001496  0.001837  0.031143  0.000928 -0.002435 -0.001047
  2N   5s        -0.002529  0.000839 -0.021799 -0.001944 -0.004750 -0.003120
  2N   1pz       -0.000004 -0.000039 -0.000682  0.000008  0.000058  0.000044
  2N   1px        0.000042  0.000002 -0.001336  0.000093 -0.000023 -0.000025
  2N   1py       -0.000030 -0.000077 -0.001357  0.000051  0.000601  0.000079
  2N   2pz        0.000187  0.000233  0.001515  0.000021 -0.000318 -0.000494
  2N   2px       -0.000144  0.000116  0.000583 -0.000469  0.000367  0.000493
  2N   2py        0.000595  0.001076  0.007104  0.000031 -0.003625 -0.001369
  2N   3pz        0.000181  0.000021 -0.001183 -0.000651  0.000498 -0.001114
  2N   3px       -0.000179 -0.000628 -0.001828  0.000238  0.001285  0.000976
  2N   3py       -0.000505  0.000101 -0.002495 -0.000832 -0.002584 -0.001565
  2N   1dz2      -0.000021 -0.000021  0.000003 -0.000002 -0.000051  0.000021
  2N   1dxz       0.000010  0.000008  0.000079  0.000007  0.000036  0.000047
  2N   1dyz      -0.000010 -0.000018 -0.000004  0.000023 -0.000022 -0.000013
  2N   1dx2y2     0.000018  0.000007  0.000162 -0.000041 -0.000086 -0.000037
  2N   1dxy       0.000030  0.000034  0.000075  0.000035 -0.000012 -0.000015
  2N   2dz2       0.000013 -0.000071 -0.001252  0.000029  0.001429  0.000173
  2N   2dxz       0.000055 -0.000038  0.000221 -0.000131 -0.000296 -0.000320
  2N   2dyz       0.000114  0.000251  0.000742 -0.000147 -0.000511 -0.000207
  2N   2dx2y2    -0.000212 -0.000245 -0.001960 -0.000000  0.002236  0.000478
  2N   2dxy      -0.000075 -0.000031  0.000223 -0.000486 -0.000055  0.000212
  2N   1f0       -0.000009 -0.000014 -0.000159  0.000016  0.000278  0.000067
  2N   1f+1       0.000001 -0.000004 -0.000092  0.000018  0.000099  0.000002
  2N   1f-1       0.000002  0.000015 -0.000069 -0.000018  0.000406 -0.000025
  2N   1f+2      -0.000004 -0.000027 -0.000006 -0.000002  0.000112  0.000023
  2N   1f-2       0.000004  0.000019 -0.000020 -0.000043  0.000002  0.000027
  2N   1f+3       0.000002  0.000019  0.000038 -0.000122 -0.000008  0.000052
  2N   1f-3       0.000013  0.000024  0.000196  0.000072 -0.000706  0.000014
  3C   1s         0.000036  0.000035 -0.000006  0.467222 -0.000673  0.000006
  3C   2s        -0.000204 -0.000222  0.000030  0.608295 -0.000840  0.000063
  3C   3s        -0.000440  0.000945 -0.000446  0.036112 -0.000127  0.000324
  3C   4s         0.003424  0.003252 -0.000350 -0.013320  0.004132 -0.002100
  3C   5s        -0.003341 -0.003820 -0.004439  0.011573 -0.011657 -0.007928
  3C   1pz        0.000025 -0.000112  0.000047  0.000333 -0.000130  0.000063
  3C   1px        0.000012  0.000105 -0.000050  0.000739 -0.000306  0.000173
  3C   1py       -0.000083  0.000667  0.000063  0.000530 -0.000068  0.000007
  3C   2pz        0.003233  0.000022 -0.000020  0.002163  0.000352 -0.000609
  3C   2px        0.004523  0.003717  0.001104  0.007736  0.000879 -0.001157
  3C   2py       -0.003313  0.008825  0.000496  0.008028  0.000389 -0.001207
  3C   3pz       -0.002459  0.001012  0.000687 -0.002047  0.002020 -0.000276
  3C   3px       -0.001806  0.000011  0.000945 -0.005588  0.004445  0.002155
  3C   3py        0.004520 -0.006338  0.001534 -0.001920  0.002225  0.001916
  3C   1dz2      -0.000153 -0.000191  0.000068 -0.001497  0.000049  0.000061
  3C   1dxz       0.000275  0.000021  0.000024  0.000830 -0.000058  0.000014
  3C   1dyz      -0.000256 -0.000046 -0.000057 -0.000839 -0.000039 -0.000007
  3C   1dx2y2     0.000003 -0.000200  0.000092 -0.001340 -0.000042 -0.000091
  3C   1dxy      -0.000285  0.000165 -0.000058  0.000414 -0.000076 -0.000023
  3C   2dz2      -0.000066 -0.001685 -0.000563 -0.001436 -0.000214  0.000561
  3C   2dxz       0.000966 -0.001399 -0.000068 -0.000581 -0.000491 -0.000003
  3C   2dyz      -0.002234 -0.000494  0.000327 -0.002492 -0.000731  0.000964
  3C   2dx2y2    -0.000876 -0.004384 -0.001470 -0.004578 -0.001540  0.001364
  3C   2dxy      -0.003359  0.001793  0.000269 -0.001559 -0.000873  0.000420
  3C   1f0       -0.000419  0.000016  0.000085 -0.000360 -0.000379  0.000047
  3C   1f+1       0.000030 -0.000096  0.000011 -0.000241 -0.000181  0.000001
  3C   1f-1       0.000088 -0.000124 -0.000005 -0.001011 -0.000179  0.000101
  3C   1f+2       0.000070  0.000132  0.000023  0.000123  0.000312  0.000019
  3C   1f-2      -0.000350  0.000287 -0.000075 -0.000930  0.000329  0.000013
  3C   1f+3       0.000056 -0.000068 -0.000163  0.001547 -0.000008 -0.000138
  3C   1f-3       0.000006 -0.000173 -0.000010  0.001273 -0.000529 -0.000094
  4O   1s         0.435393  0.000045  0.000001 -0.000028  0.000002 -0.000001
  4O   2s         0.639601  0.000074 -0.000017 -0.000201 -0.000011  0.000015
  4O   3s         0.034952 -0.000254  0.000194  0.002161  0.000127 -0.000264
  4O   4s        -0.027549  0.001716 -0.000830 -0.005598 -0.000417  0.001016
  4O   5s         0.011677 -0.001633  0.001410  0.001496 -0.001228  0.001854
  4O   1pz       -0.000364 -0.000015 -0.000047 -0.000347 -0.000044  0.000035
  4O   1px        0.000007 -0.000048 -0.000007 -0.000426 -0.000065  0.000056
  4O   1py        0.001800  0.000009 -0.000015  0.000454  0.000031 -0.000030
  4O   2pz        0.001701 -0.000225  0.000275  0.002255  0.000373 -0.000324
  4O   2px        0.001568 -0.000060  0.000159  0.002894  0.000597 -0.000516
  4O   2py       -0.004261  0.000631  0.000174 -0.002869 -0.000160  0.000367
  4O   3pz       -0.000443  0.000096 -0.000736 -0.000254  0.000739  0.000182
  4O   3px       -0.000916  0.000047 -0.000608  0.000754  0.001769  0.000136
  4O   3py        0.000648  0.000532 -0.000045  0.001714  0.000216  0.000375
  4O   1dz2      -0.000081 -0.000042  0.000019  0.000017  0.000008 -0.000006
  4O   1dxz       0.000174  0.000067 -0.000024  0.000021  0.000018 -0.000012
  4O   1dyz      -0.000086 -0.000013 -0.000024 -0.000095 -0.000011 -0.000018
  4O   1dx2y2     0.000039  0.000016  0.000008 -0.000025  0.000032 -0.000001
  4O   1dxy      -0.000070  0.000022 -0.000028 -0.000175 -0.000036  0.000007
  4O   2dz2       0.000458  0.000113 -0.000086  0.000246 -0.000054 -0.000031
  4O   2dxz      -0.000961 -0.000220  0.000033 -0.000861 -0.000138  0.000158
  4O   2dyz       0.000569 -0.000105  0.000058  0.001421  0.000046  0.000018
  4O   2dx2y2    -0.000141 -0.000207 -0.000088  0.000389 -0.000236  0.000085
  4O   2dxy       0.000539 -0.000247  0.000071  0.002043  0.000207 -0.000105
  4O   1f0       -0.000004 -0.000048  0.000016 -0.000348  0.000003 -0.000005
  4O   1f+1       0.000036  0.000011  0.000005 -0.000016  0.000005 -0.000004
  4O   1f-1       0.000019  0.000049  0.000008 -0.000046  0.000007 -0.000001
  4O   1f+2      -0.000098  0.000010  0.000005 -0.000104  0.000041 -0.000000
  4O   1f-2      -0.000223 -0.000017 -0.000023 -0.000501  0.000008  0.000017
  4O   1f+3       0.000123 -0.000042 -0.000011  0.000428 -0.000045 -0.000013
  4O   1f-3       0.000171 -0.000044 -0.000001  0.000184  0.000015 -0.000027
  5O   1s        -0.000045  0.435387  0.000001 -0.000090  0.000003 -0.000001
  5O   2s        -0.000058  0.639583 -0.000012 -0.000305 -0.000021  0.000021
  5O   3s        -0.000171  0.035127  0.000148  0.002970  0.000267 -0.000355
  5O   4s         0.001477 -0.029746 -0.001096 -0.011518 -0.000935  0.001967
  5O   5s        -0.002172  0.011677 -0.000529 -0.001636 -0.002008  0.000943
  5O   1pz        0.000015  0.000201  0.000026  0.000039 -0.000024  0.000020
  5O   1px       -0.000033 -0.000559 -0.000023 -0.000169 -0.000100  0.000023
  5O   1py       -0.000089 -0.002101 -0.000023 -0.000578 -0.000096  0.000046
  5O   2pz        0.000106 -0.000547 -0.000139 -0.000480  0.000115 -0.000074
  5O   2px        0.000269  0.001732  0.000244  0.002290  0.000572 -0.000436
  5O   2py       -0.000091  0.006126  0.000373  0.007407  0.000675 -0.000901
  5O   3pz        0.000550 -0.000067 -0.000258  0.000635 -0.000062  0.000001
  5O   3px        0.000652 -0.000471  0.000048  0.001386  0.000350 -0.000333
  5O   3py       -0.000104 -0.000452  0.000006  0.000007  0.000593 -0.000284
  5O   1dz2      -0.000053 -0.000129  0.000009  0.000022 -0.000024 -0.000026
  5O   1dxz       0.000062 -0.000064 -0.000010 -0.000027  0.000020 -0.000011
  5O   1dyz      -0.000017 -0.000035 -0.000027  0.000040  0.000016 -0.000016
  5O   1dx2y2    -0.000005 -0.000255  0.000006  0.000014  0.000020  0.000000
  5O   1dxy       0.000017  0.000141  0.000002  0.000043  0.000055 -0.000007
  5O   2dz2       0.000178  0.000665 -0.000039  0.001402  0.000134 -0.000006
  5O   2dxz      -0.000231  0.000198  0.000051  0.000250 -0.000108  0.000033
  5O   2dyz       0.000017  0.000209  0.000079  0.000219 -0.000033  0.000049
  5O   2dx2y2    -0.000051  0.001174 -0.000077  0.002191 -0.000059 -0.000106
  5O   2dxy      -0.000125 -0.000652 -0.000053 -0.001573 -0.000210  0.000164
  5O   1f0        0.000031  0.000025 -0.000013  0.000090  0.000029 -0.000004
  5O   1f+1      -0.000008 -0.000023  0.000004 -0.000058  0.000002 -0.000005
  5O   1f-1      -0.000023 -0.000095  0.000014 -0.000292 -0.000007 -0.000009
  5O   1f+2       0.000029  0.000035 -0.000027  0.000035  0.000032 -0.000008
  5O   1f-2       0.000049 -0.000017 -0.000007 -0.000119  0.000051  0.000003
  5O   1f+3      -0.000019  0.000085 -0.000012  0.000329 -0.000063 -0.000006
  5O   1f-3       0.000001  0.000098 -0.000036  0.000378 -0.000011 -0.000009
  6H   1s         0.000004  0.000008 -0.000007  0.000057  0.000017 -0.000416
  6H   2s        -0.000332 -0.000589  0.000316 -0.000047 -0.000454 -0.002742
  6H   3s         0.000319 -0.000987 -0.001005 -0.000180  0.000591 -0.005101
  6H   1pz        0.000037  0.000099 -0.000019  0.000104  0.000166  0.001803
  6H   1px        0.000040 -0.000045 -0.000034 -0.000176 -0.000252  0.000281
  6H   1py       -0.000021 -0.000042  0.000106 -0.000074  0.000055 -0.000774
  7H   1s         0.000064  0.000027 -0.000078  0.000051 -0.000009 -0.000481
  7H   2s        -0.000482 -0.000209 -0.000515 -0.000049 -0.000376 -0.002377
  7H   3s        -0.001323  0.000464  0.000352  0.000067  0.000673 -0.004737
  7H   1pz        0.000043 -0.000005 -0.000031 -0.000044  0.000150  0.000179
  7H   1px       -0.000074  0.000061  0.000010 -0.000168 -0.000257 -0.000121
  7H   1py        0.000063  0.000021  0.000063  0.000061  0.000051  0.001969
  8H   1s         0.000035  0.000018 -0.000004 -0.000041 -0.000142 -0.000533
  8H   2s        -0.000143  0.000092  0.000091 -0.000993 -0.000658 -0.002564
  8H   3s        -0.000106  0.000305 -0.000085 -0.000812  0.000877 -0.003954
  8H   1pz       -0.000006 -0.000015  0.000019 -0.000053  0.000145 -0.000697
  8H   1px        0.000012  0.000048  0.000001 -0.000137 -0.000229 -0.001770
  8H   1py       -0.000033 -0.000004  0.000071 -0.000039  0.000055 -0.000688
  9H   1s         0.000006  0.000029  0.000005 -0.000039 -0.000448  0.000018
  9H   2s         0.000501 -0.000400 -0.000975 -0.000419 -0.003636 -0.000387
  9H   3s         0.000145 -0.000035 -0.002352 -0.000029 -0.005192 -0.000360
  9H   1pz        0.000105 -0.000006 -0.000071 -0.000049 -0.001754 -0.000150
  9H   1px       -0.000092 -0.000051 -0.000060 -0.000240 -0.000367  0.000253
  9H   1py        0.000074  0.000141 -0.000146 -0.000122  0.000891 -0.000156
 10H   1s        -0.000035 -0.000044 -0.000219  0.000015 -0.000041  0.000098
 10H   2s         0.000257  0.000409  0.001092 -0.000267 -0.001837 -0.000380
 10H   3s        -0.000076  0.000005  0.002165  0.000187 -0.000930 -0.000293
 10H   1pz        0.000006 -0.000056 -0.000518  0.000100  0.000162  0.000032
 10H   1px        0.000021  0.000004 -0.000083 -0.000008  0.000022  0.000086
 10H   1py        0.000014  0.000037  0.000242 -0.000093 -0.000344 -0.000185
 11H   1s        -0.000022 -0.000022 -0.000192  0.000020 -0.000184 -0.000049
 11H   2s         0.000468  0.000098  0.001330 -0.000374 -0.001335 -0.001095
 11H   3s         0.000268  0.000013  0.001984 -0.000414 -0.000831 -0.000678
 11H   1pz        0.000105 -0.000004  0.000496 -0.000105 -0.000237 -0.000159
 11H   1px        0.000034  0.000024 -0.000436  0.000037  0.000113  0.000170
 11H   1py        0.000101 -0.000018  0.000227 -0.000068 -0.000207 -0.000110
 12H   1s         0.000740  0.000114 -0.000082 -0.000352  0.000032  0.000037
 12H   2s         0.001241  0.000033  0.000236 -0.001002 -0.000829 -0.000577
 12H   3s        -0.000551  0.000135  0.000159  0.000185 -0.000742  0.000127
 12H   1pz       -0.000298 -0.000006  0.000019  0.000078  0.000043  0.000025
 12H   1px       -0.000714 -0.000014 -0.000004  0.000193  0.000096  0.000076
 12H   1py       -0.000401 -0.000042 -0.000039  0.000182  0.000073  0.000049
                      6         7         8         9        10        11   
                  -1.14401  -1.05324  -0.92289  -0.77222  -0.68762  -0.61765
                   2.00000   2.00000   2.00000   2.00000   2.00000   2.00000
                  --------  --------  --------  --------  --------  --------
  0C   1s         0.001778 -0.000864 -0.019653 -0.064972 -0.054297 -0.033112
  0C   2s         0.003654 -0.001802 -0.041415 -0.138272 -0.115978 -0.070901
  0C   3s        -0.004414  0.001911  0.061774  0.209211  0.174828  0.105788
  0C   4s        -0.008004  0.005355  0.059697  0.237068  0.222091  0.154203
  0C   5s        -0.009303  0.000084  0.017983  0.048511  0.016484  0.024545
  0C   1pz        0.001159 -0.000737 -0.015946 -0.019099  0.011588  0.062100
  0C   1px       -0.003084  0.001275  0.019110  0.027898 -0.031092 -0.041961
  0C   1py        0.000240  0.001004 -0.012724  0.000550 -0.001993  0.005774
  0C   2pz        0.001375 -0.001651 -0.008704 -0.013742  0.003530  0.038388
  0C   2px       -0.004626  0.002561  0.011233  0.023887 -0.016856 -0.020237
  0C   2py        0.000130  0.000428 -0.009118  0.000282 -0.004445  0.001436
  0C   3pz        0.001643 -0.001345 -0.004652 -0.006185  0.005098  0.015550
  0C   3px       -0.003152  0.000171  0.004159  0.006107 -0.010932 -0.007351
  0C   3py        0.002541  0.001506 -0.001711  0.001174 -0.000946 -0.000327
  0C   1dz2       0.000102 -0.000065 -0.000034  0.000051  0.000548 -0.000922
  0C   1dxz       0.000225 -0.000159 -0.001578 -0.002324  0.001508  0.004043
  0C   1dyz      -0.000004 -0.000019  0.001205  0.000284  0.000225 -0.001554
  0C   1dx2y2    -0.000253  0.000072  0.000529  0.001541 -0.001635 -0.001584
  0C   1dxy       0.000010  0.000065 -0.001245 -0.000201  0.000384  0.000617
  0C   2dz2       0.000958  0.000217 -0.000422  0.001536  0.000895 -0.005644
  0C   2dxz       0.000665 -0.000800 -0.001318 -0.004295 -0.000774  0.001587
  0C   2dyz      -0.000079 -0.000172  0.001196 -0.000989  0.002139  0.001570
  0C   2dx2y2    -0.001005  0.001336 -0.000743  0.003662 -0.001217  0.000894
  0C   2dxy       0.000358  0.000586 -0.002378 -0.000965 -0.001142 -0.001058
  0C   1f0       -0.000116  0.000111  0.000618  0.001620  0.001351  0.001291
  0C   1f+1       0.000209  0.000024  0.000298  0.001858  0.001903 -0.000006
  0C   1f-1       0.000005 -0.000015 -0.000579 -0.002099 -0.002110 -0.000884
  0C   1f+2       0.000163 -0.000247 -0.000270 -0.002736 -0.001718 -0.001226
  0C   1f-2       0.000056 -0.000098  0.000409 -0.000157  0.000401  0.000216
  0C   1f+3       0.000243 -0.000190  0.000535 -0.000447  0.000479 -0.000149
  0C   1f-3      -0.000045 -0.000023  0.000811  0.002372  0.002143  0.001726
  1C   1s         0.008507 -0.001799 -0.053980 -0.047310  0.021459  0.049311
  1C   2s         0.017605 -0.003719 -0.114311 -0.100868  0.045981  0.106137
  1C   3s        -0.025941  0.008110  0.171030  0.149840 -0.067095 -0.160920
  1C   4s        -0.020106 -0.010397  0.187450  0.193421 -0.102246 -0.237426
  1C   5s         0.019422 -0.001092 -0.034064 -0.027135  0.004791 -0.029187
  1C   1pz       -0.005827 -0.001078 -0.000049  0.046321  0.013224  0.090150
  1C   1px       -0.013065  0.001140  0.003911 -0.021117 -0.113248  0.001139
  1C   1py       -0.003331  0.010568 -0.063920  0.079790 -0.025300 -0.024092
  1C   2pz       -0.000689 -0.005053  0.008515  0.036121  0.005220  0.051582
  1C   2px       -0.004328 -0.005903  0.005280 -0.012111 -0.079464 -0.002794
  1C   2py        0.001832  0.002690 -0.029290  0.050436 -0.016059 -0.019088
  1C   3pz        0.007080  0.002494 -0.005454  0.002037  0.006753  0.008951
  1C   3px       -0.000576 -0.000120 -0.001188 -0.001874 -0.018725 -0.005401
  1C   3py       -0.002341 -0.005641 -0.003826  0.003793  0.003602 -0.001642
  1C   1dz2       0.000377 -0.000058 -0.003645  0.002352  0.001181 -0.001006
  1C   1dxz      -0.000677 -0.000608 -0.000261 -0.001420 -0.006540 -0.001209
  1C   1dyz      -0.000218  0.000288  0.001457  0.000790  0.000137  0.000972
  1C   1dx2y2    -0.000366 -0.000633 -0.005768  0.006335 -0.003150  0.002804
  1C   1dxy      -0.000271  0.001015 -0.000438  0.001076 -0.002935 -0.001901
  1C   2dz2       0.000570 -0.000427 -0.001804  0.001220  0.003738  0.002999
  1C   2dxz      -0.000517 -0.002208 -0.002370 -0.002282 -0.007082  0.003576
  1C   2dyz       0.001206 -0.000696  0.002894  0.003655 -0.001515 -0.005964
  1C   2dx2y2     0.000161 -0.003378 -0.000544  0.006674 -0.004258  0.001533
  1C   2dxy       0.001008  0.000540 -0.001263  0.001928 -0.005950 -0.006108
  1C   1f0        0.000358  0.000239 -0.001284 -0.001572  0.001009  0.000581
  1C   1f+1       0.000026 -0.000109 -0.001560 -0.001432  0.000460  0.001773
  1C   1f-1      -0.000119 -0.000331  0.002323  0.001604 -0.000829 -0.001539
  1C   1f+2      -0.000581 -0.000651  0.002240  0.002392 -0.001931 -0.001781
  1C   1f-2       0.000338 -0.000010  0.000506  0.000197 -0.000446 -0.000600
  1C   1f+3      -0.000099  0.001059  0.000352 -0.000649  0.001150 -0.000822
  1C   1f-3      -0.000227  0.000023 -0.003761 -0.002494  0.001456  0.004384
  2N   1s         0.003417  0.001974 -0.080284  0.046080 -0.014422 -0.011003
  2N   2s         0.007635  0.004402 -0.181093  0.104567 -0.032802 -0.025055
  2N   3s        -0.010709 -0.005922  0.263355 -0.155164  0.048801  0.037300
  2N   4s        -0.013411 -0.010144  0.343809 -0.210939  0.069689  0.056305
  2N   5s        -0.003042 -0.001013  0.085122 -0.065179  0.030893  0.034430
  2N   1pz       -0.001900 -0.001400  0.021080  0.000966  0.011230  0.044077
  2N   1px       -0.002989 -0.002113  0.040946 -0.045368 -0.011819  0.026944
  2N   1py       -0.003946 -0.001050  0.039402  0.046229 -0.030515 -0.094000
  2N   2pz       -0.001394 -0.001763  0.019631 -0.000403  0.008904  0.035544
  2N   2px       -0.002556 -0.002044  0.035001 -0.037846 -0.011805  0.021773
  2N   2py       -0.003413 -0.001803  0.043441  0.029499 -0.021544 -0.070489
  2N   3pz       -0.000311 -0.000155  0.001254  0.001817  0.002826  0.016609
  2N   3px        0.001334  0.001174 -0.002101 -0.008176 -0.005757  0.008392
  2N   3py       -0.001272 -0.000335  0.007299  0.013570 -0.006364 -0.024888
  2N   1dz2       0.000084  0.000002  0.000471 -0.002041  0.001402  0.003149
  2N   1dxz      -0.000048 -0.000019 -0.001838  0.001518 -0.000606  0.000396
  2N   1dyz      -0.000127 -0.000018 -0.000110  0.001627 -0.000624 -0.000841
  2N   1dx2y2     0.000223  0.000048 -0.003202 -0.000954  0.000411  0.002744
  2N   1dxy      -0.000160 -0.000040 -0.001431  0.001545 -0.002162 -0.001265
  2N   2dz2       0.000378  0.000003 -0.002721 -0.000919  0.001696  0.003787
[...]
     10       0.004790  -0.673079   0.000899  -0.001405  -0.000543   0.000379
     11      -0.002596   0.072868   0.000443   0.001282   0.000165   0.000017
     12       0.000516   0.019765  -0.000179  -0.000205  -0.000103  -0.000002
     13      -0.000540   0.055302  -0.000018   0.000216   0.000061  -0.000045
     14       0.000226  -0.006802  -0.000151  -0.000083  -0.000098  -0.000008
     15      -0.000325   0.134839  -0.000162   0.000119  -0.000006   0.000107
     16      -0.003230   0.432578  -0.000449   0.000464   0.000244  -0.000216
     17       0.000592  -0.063320  -0.000060  -0.000284  -0.000002  -0.000037
     18       0.008384  -0.036553  -0.110621   0.007909  -0.095905   0.018399
     19      -0.035002   0.002054   0.316034  -0.020964   0.305404  -0.014974
     20      -0.012735  -0.004043  -0.623206   0.039693  -0.611298   0.062272
     21       0.005507  -0.019688   0.005850  -0.002626   0.001666   0.019932
     22       0.006747  -0.017104  -0.475315  -0.129774   0.400533  -0.760421
     23      -0.045319  -0.014373  -0.057164  -0.019028   0.067001  -0.100118
     24      -0.015186  -0.045087   0.444225   0.132216  -0.498168  -0.559359
     25       0.008805   0.042726   0.148481   0.048445  -0.178658  -0.175679
     26       0.020083   0.091088   0.194362   0.054143  -0.199247  -0.233258
     27      -0.032415  -0.160057   0.018491  -0.179411  -0.031168   0.000331
     28      -0.052524  -0.160668  -0.045855   0.435860   0.076463  -0.004964
     29      -0.004668  -0.036626   0.089459  -0.853459  -0.154252   0.007037
     30      -0.426541   0.005813  -0.001862   0.006130  -0.000172   0.000846
     31       0.450186   0.014913   0.003506  -0.004985   0.001969  -0.000051
     32       0.345959   0.008795  -0.002679   0.020603   0.004949  -0.000727
     33      -0.127980   0.005986  -0.000539  -0.001692  -0.000396  -0.001767
     34       0.540845  -0.006434   0.002176  -0.002717  -0.000289  -0.000237
     35      -0.414277  -0.001358  -0.000154  -0.000673  -0.001127   0.000081
     36       0.001936   0.163960  -0.000399  -0.000328   0.000255   0.000295
     37      -0.003956  -0.343909   0.000253   0.000166   0.000230   0.000086
     38      -0.000089   0.199422  -0.000340   0.000330   0.000078  -0.000092
                 36         37         38    
      0      -0.000116   0.000214   0.000042
      1      -0.000142   0.000131  -0.000036
      2      -0.000099  -0.000381  -0.000049
      3       0.001956  -0.000244  -0.000542
      4       0.000541  -0.000979  -0.000047
      5       0.002167   0.001757  -0.000108
      6       0.038606  -0.031339  -0.000066
      7      -0.039457  -0.008375  -0.000223
      8       0.013757   0.074029  -0.000074
      9      -0.000171   0.000107   0.002636
     10      -0.000103  -0.000026  -0.000478
     11       0.000171   0.000008   0.001561
     12      -0.000107   0.000038   0.050690
     13       0.000045   0.000035   0.028328
     14      -0.000060  -0.000007   0.019986
     15       0.000107  -0.000012  -0.000173
     16       0.000161  -0.000001   0.001060
     17      -0.000059   0.000003  -0.000397
     18       0.001317   0.001195   0.000048
     19      -0.001110  -0.001207   0.000060
     20       0.000673  -0.000074  -0.000202
     21      -0.000063  -0.000416   0.000011
     22       0.002052  -0.000518  -0.000020
     23      -0.000338  -0.000126   0.000008
     24      -0.000552  -0.000180  -0.000536
     25       0.000016  -0.000415  -0.000017
     26      -0.000063  -0.000123  -0.000080
     27      -0.003007  -0.002350  -0.000046
     28       0.005846   0.007390  -0.000340
     29      -0.013431  -0.012415  -0.000482
     30      -0.084671  -0.108364   0.000043
     31       0.357100   0.323671   0.001154
     32      -0.644076  -0.571722  -0.001693
     33      -0.471307   0.544505  -0.001123
     34       0.175547  -0.202949   0.000680
     35       0.440504  -0.460652   0.001496
     36       0.001927  -0.000231  -0.824745
     37       0.002050   0.000278  -0.458195
     38       0.000784  -0.000025  -0.325670


-----------
IR SPECTRUM
-----------

 Mode   freq       eps      Int      T**2         TX        TY        TZ
       cm**-1   L/(mol*cm) km/mol    a.u.
----------------------------------------------------------------------------
  6:     36.30   0.000410    2.07  0.003524  ( 0.034423 -0.014868 -0.046025)
  7:    227.31   0.000026    0.13  0.000036  ( 0.001422 -0.002185 -0.005394)
  8:    240.41   0.000826    4.18  0.001073  (-0.022099  0.009879  0.022063)
  9:    260.37   0.011973   60.51  0.014350  ( 0.047419  0.034762 -0.104370)
 10:    296.50   0.003130   15.82  0.003294  (-0.017416  0.002217  0.054646)
 11:    382.48   0.002988   15.10  0.002438  (-0.007857 -0.024910 -0.041897)
 12:    531.81   0.003357   16.97  0.001970  ( 0.040579  0.011288  0.014003)
 13:    594.44   0.030349  153.37  0.015932  (-0.087248  0.064837  0.064159)
 14:    621.69   0.018008   91.01  0.009039  (-0.000411  0.024268 -0.091926)
 15:    773.71   0.007156   36.16  0.002886  (-0.040013 -0.007760  0.035000)
 16:    799.55   0.014006   70.78  0.005467  ( 0.049055  0.038275  0.039942)
 17:    901.18   0.043555  220.11  0.015083  (-0.076279 -0.081213 -0.051657)
 18:    933.35   0.001199    6.06  0.000401  (-0.001671 -0.016299  0.011506)
 19:   1020.11   0.001072    5.42  0.000328  (-0.014954  0.007548 -0.006882)
 20:   1059.68   0.028654  144.81  0.008438  ( 0.078261 -0.022488  0.042518)
 21:   1173.99   0.005314   26.86  0.001413  ( 0.004288 -0.037012 -0.004932)
 22:   1190.83   0.051685  261.20  0.013544  ( 0.062647 -0.078739  0.058480)
 23:   1267.16   0.002244   11.34  0.000553  ( 0.013443  0.018064  0.006756)
 24:   1324.93   0.001662    8.40  0.000391  ( 0.013320  0.011834  0.008602)
 25:   1373.54   0.008925   45.10  0.002028  ( 0.026745 -0.022720  0.028216)
 26:   1391.67   0.010679   53.97  0.002395  (-0.043124  0.011882 -0.019841)
 27:   1394.46   0.008716   44.05  0.001951  (-0.020166  0.039289 -0.000508)
 28:   1466.26   0.003100   15.67  0.000660  ( 0.013260 -0.010768  0.019186)
 29:   1473.47   0.000852    4.30  0.000180  ( 0.009075  0.006510  0.007459)
 30:   1638.40   0.013632   68.89  0.002597  (-0.031738  0.037929 -0.012272)
 31:   1782.19   0.109947  555.63  0.019252  (-0.027071 -0.130641  0.038105)
 32:   3052.54   0.003550   17.94  0.000363  (-0.013177  0.001551  0.013672)
 33:   3078.60   0.003293   16.64  0.000334  (-0.003721 -0.012051  0.013217)
 34:   3132.15   0.006079   30.72  0.000606  ( 0.011795 -0.013730  0.016673)
 35:   3148.71   0.003906   19.74  0.000387  ( 0.008802  0.017079  0.004241)
 36:   3518.54   0.001161    5.87  0.000103  (-0.005740  0.008176 -0.001773)
 37:   3594.86   0.002670   13.49  0.000232  ( 0.005124  0.001950 -0.014202)
 38:   3751.15   0.030067  151.94  0.002501  (-0.044085 -0.009199 -0.021753)

* The epsilon (eps) is given for a Dirac delta lineshape.
** The dipole moment derivative (T) already includes vibrational overlap.

The first frequency considered to be a vibration is 6
The total number of vibrations considered is 33


--------------------------
THERMOCHEMISTRY AT 298.15K
--------------------------

Temperature         ...   298.15 K
Pressure            ...     1.00 atm
Total Mass          ...    89.09 AMU
Quasi RRHO          ...     True
Cut-Off Frequency   ...     1.00 cm^-1

Throughout the following assumptions are being made:
  (1) The electronic state is orbitally nondegenerate
  (2) There are no thermally accessible electronically excited states
  (3) Hindered rotations indicated by low frequency modes are not
      treated as such but are treated as vibrations and this may
      cause some error
  (4) All equations used are the standard statistical mechanics
      equations for an ideal gas
  (5) All vibrations are strictly harmonic

freq.      36.30  E(vib)   ...       0.54 
freq.     227.31  E(vib)   ...       0.33 
freq.     240.41  E(vib)   ...       0.31 
freq.     260.37  E(vib)   ...       0.30 
freq.     296.50  E(vib)   ...       0.27 
freq.     382.48  E(vib)   ...       0.21 
freq.     531.81  E(vib)   ...       0.13 
freq.     594.44  E(vib)   ...       0.10 
freq.     621.69  E(vib)   ...       0.09 
freq.     773.71  E(vib)   ...       0.05 
freq.     799.55  E(vib)   ...       0.05 
freq.     901.18  E(vib)   ...       0.03 
freq.     933.35  E(vib)   ...       0.03 
freq.    1020.11  E(vib)   ...       0.02 
freq.    1059.68  E(vib)   ...       0.02 
freq.    1173.99  E(vib)   ...       0.01 
freq.    1190.83  E(vib)   ...       0.01 
freq.    1267.16  E(vib)   ...       0.01 
freq.    1324.93  E(vib)   ...       0.01 
freq.    1373.54  E(vib)   ...       0.01 
freq.    1391.67  E(vib)   ...       0.00 
freq.    1394.46  E(vib)   ...       0.00 
freq.    1466.26  E(vib)   ...       0.00 
freq.    1473.47  E(vib)   ...       0.00 
freq.    1638.40  E(vib)   ...       0.00 
freq.    1782.19  E(vib)   ...       0.00 
freq.    3052.54  E(vib)   ...       0.00 
freq.    3078.60  E(vib)   ...       0.00 
freq.    3132.15  E(vib)   ...       0.00 
freq.    3148.71  E(vib)   ...       0.00 
freq.    3518.54  E(vib)   ...       0.00 
freq.    3594.86  E(vib)   ...       0.00 
freq.    3751.15  E(vib)   ...       0.00 

------------
INNER ENERGY
------------

The inner energy is: U= E(el) + E(ZPE) + E(vib) + E(rot) + E(trans)
    E(el)   - is the total energy from the electronic structure calculation
              = E(kin-el) + E(nuc-el) + E(el-el) + E(nuc-nuc)
    E(ZPE)  - the the zero temperature vibrational energy from the frequency calculation
    E(vib)  - the the finite temperature correction to E(ZPE) due to population
              of excited vibrational states
    E(rot)  - is the rotational thermal energy
    E(trans)- is the translational thermal energy

Summary of contributions to the inner energy U:
Electronic energy                ...   -323.53366177 Eh
Zero point energy                ...      0.10805882 Eh      67.81 kcal/mol
Thermal vibrational correction   ...      0.00404722 Eh       2.54 kcal/mol
Thermal rotational correction    ...      0.00141627 Eh       0.89 kcal/mol
Thermal translational correction ...      0.00141627 Eh       0.89 kcal/mol
-----------------------------------------------------------------------
Total thermal energy                   -323.41872318 Eh


Summary of corrections to the electronic energy:
(perhaps to be used in another calculation)
Total thermal correction                  0.00687976 Eh       4.32 kcal/mol
Non-thermal (ZPE) correction              0.10805882 Eh      67.81 kcal/mol
-----------------------------------------------------------------------
Total correction                          0.11493858 Eh      72.12 kcal/mol


--------
ENTHALPY
--------

The enthalpy is H = U + kB*T
                kB is Boltzmann's constant
Total thermal energy              ...   -323.41872318 Eh 
Thermal Enthalpy correction       ...      0.00094421 Eh       0.59 kcal/mol
-----------------------------------------------------------------------
Total Enthalpy                    ...   -323.41777898 Eh


Note: Only C1 symmetry has been detected, increase convergence thresholds 
      if your molecule has a higher symmetry. Symmetry factor of 1.0 is   
      used for the rotational entropy correction. 
 

Note: Rotational entropy computed according to Herzberg 
Infrared and Raman Spectra, Chapter V,1, Van Nostrand Reinhold, 1945 
Point Group:  C1, Symmetry Number:   1  
Rotational constants in cm-1:     0.169468     0.101646     0.078920 

Vibrational entropy computed according to the QRRHO of S. Grimme
Chem.Eur.J. 2012 18 9955 using a reference frequency of 100.0 cm-1


-------
ENTROPY
-------

The entropy contributions are T*S = T*(S(el)+S(vib)+S(rot)+S(trans))
     S(el)   - electronic entropy
     S(vib)  - vibrational entropy
     S(rot)  - rotational entropy
     S(trans)- translational entropy
The entropies will be listed as multiplied by the temperature to get
units of energy

Electronic entropy                ...      0.00000000 Eh      0.00 kcal/mol
Vibrational entropy               ...      0.00678949 Eh      4.26 kcal/mol
Rotational entropy                ...      0.01262692 Eh      7.92 kcal/mol
Translational entropy             ...      0.01870769 Eh     11.74 kcal/mol
-----------------------------------------------------------------------
Final entropy term                ...      0.03812411 Eh     23.92 kcal/mol

In case the symmetry of your molecule has not been determined correctly
or in case you have a reason to use a different symmetry number we print 
out the resulting rotational entropy values for sn=1,12:

 non-linear molecules -----------------------------------
|  sn= 1 | S(rot)=       0.01262692 Eh      7.92 kcal/mol|
|  sn= 2 | S(rot)=       0.01197247 Eh      7.51 kcal/mol|
|  sn= 3 | S(rot)=       0.01158964 Eh      7.27 kcal/mol|
|  sn= 4 | S(rot)=       0.01131801 Eh      7.10 kcal/mol|
|  sn= 5 | S(rot)=       0.01110732 Eh      6.97 kcal/mol|
|  sn= 6 | S(rot)=       0.01093518 Eh      6.86 kcal/mol|
|  sn= 7 | S(rot)=       0.01078963 Eh      6.77 kcal/mol|
|  sn= 8 | S(rot)=       0.01066355 Eh      6.69 kcal/mol|
|  sn= 9 | S(rot)=       0.01055235 Eh      6.62 kcal/mol|
|  sn=10 | S(rot)=       0.01045287 Eh      6.56 kcal/mol|
|  sn=11 | S(rot)=       0.01036288 Eh      6.50 kcal/mol|
|  sn=12 | S(rot)=       0.01028072 Eh      6.45 kcal/mol|
 linear molecules ---------------------------------------
|  Dinfh | S(rot)=       0.00772339 Eh      4.85 kcal/mol|
|  Cinfv | S(rot)=       0.00837784 Eh      5.26 kcal/mol|
 --------------------------------------------------------


-------------------
GIBBS FREE ENERGY
-------------------

The Gibbs free energy is G = H - T*S

Total enthalpy                    ...   -323.41777898 Eh 
Total entropy correction          ...     -0.03812411 Eh    -23.92 kcal/mol
-----------------------------------------------------------------------
Final Gibbs free energy         ...   -323.45590308 Eh

For completeness - the Gibbs free energy minus the electronic energy
G-E(el)                           ...      0.07775868 Eh     48.79 kcal/mol


Maximum memory used throughout the entire PROP-calculation: 59.4 MB

--------------------------------
SUGGESTED CITATIONS FOR THIS RUN
--------------------------------

Below you find a list of papers that are relevant to this ORCA run
We neither can nor want to force you to cite these papers, but we appreciate if you do
You receive ORCA, which is the product of decades of hard work by many enthusiastic individuals, for free
The only thing we kindly ask in return is that you cite our papers,
We deeply appreciate it, if you show your appreciation for ORCA by not just citing the generic ORCA reference.

Please note that relegating all ORCA citations to the supporting information does *not* help us.
SI sections are not indexed - citations you put there will not count into any citation statistics
But we need these citations in order to attract the funding resources that allow us to do what we are doing

Therefore, if you are a happy ORCA user, please consider citing a few of the papers listed below in the main body of your paper

In addition to the list printed below, the program has created the file alanine_cpcm.bibtex that contains the list in bibtex format
You can import this file easily into all common literature databanks and citation aid programs


List of essential papers. We consider these as the minimum necessary citations

  1. Neese,F.
     Software update: the ORCA program system, version 5.0
     WIRES Comput. Molec. Sci., 2022 12(1)e1606
     doi.org/10.1002/wcms.1606

List of papers to cite with high priority. The work reported in these papers was absolutely
necessary for this run to complete.
Our perspective: the developers of density functionals and basis sets usually get cited in chemistry papers
Good! But without the algorithms to do something with them, the functionals or basis sets would not do anything.
Hence, in our opinion, the algorithm design and method developments papers are equally worthy of getting cited

  1. Neese,F.
     An improvement of the resolution of the identity approximation for the formation of the Coulomb matrix
     J. Comp. Chem., 2003 24(14)1740-1747
     doi.org/10.1002/jcc.10318
  2. Neese,F.; Wennmohs,F.; Hansen,A.; Becker,U.
     Efficient, approximate and parallel Hartree-Fock and hybrid DFT calculations. A 'chain-of-spheres' algorithm for the Hartree-Fock exchange
     Chem. Phys., 2009 356(1-3)98-109
     doi.org/10.1016/j.chemphys.2008.10.036
  3. Bykov,D.; Petrenko,T.; Izsak,R.; Kossmann,S.; Becker,U.; Valeev,E.; Neese,F.
     Efficient implementation of the analytic second derivatives of Hartree-Fock and hybrid DFT energies: a detailed analysis of different approximations
     Molec. Phys., 2015 113 1961-1977
     doi.org/10.1080/00268976.2015.1025114
  4. Garcia-Rates,M.; Neese,F.
     Efficient implementation of the analytical second derivatives of hartree-fock and hybrid DFT energies within the framework of the conductor-like polarizable continuum model
     J. Comput. Chem., 2019 40 1816-1828
     doi.org/10.1002/jcc.25833
  5. Garcia-Rates,M.; Neese,F.
     Effect of the Solute Cavity on the Solvation Energy and its Derivatives within the Framework of the Gaussian Charge Scheme
     J. Comput. Chem., 2020 41 922-939
     doi.org/10.1002/jcc.26139
  6. Helmich-Paris,B.; de Souza,B.; Neese,F.; Izsák,R.
     An improved chain of spheres for exchange algorithm
     J. Chem. Phys., 2021 155 104109
     doi.org/doi: 10.1063/5.0058766.
  7. Neese,F.
     The SHARK Integral Generation and Digestion System
     J. Comp. Chem., 2022  1-16
     doi.org/10.1002/jcc.26942

List of suggested additional citations. These are papers that are important in the 'surrounding' of 
of this run, or papers that preceded the highly important papers. If you like your results we are grateful for a citation.

  1. Izsak,R.; Neese,F.
     An overlap fitted chain of spheres exchange method
     J. Chem. Phys., 2011 135 144105
     doi.org/10.1063/1.3646921
  2. Izsak,R.; Hansen,A.; Neese,F.
     The resolution of identity and chain of spheres approximations for the LPNO-CCSD singles Fock term
     Molec. Phys., 2012 110 2413-2417
     doi.org/10.1080/00268976.2012.687466
  3. Neese,F.
     The ORCA program system
     WIRES Comput. Molec. Sci., 2012 2(1)73-78
     doi.org/10.1002/wcms.81
  4. Izsak,R.; Neese,F.; Klopper,W.
     Robust fitting techniques in the chain of spheres approximation to the Fock exchange: The role of the complementary space
     J. Chem. Phys., 2013 139 
     doi.org/10.1063/1.4819264
  5. Neese,F.
     Software update: the ORCA program system, version 4.0
     WIRES Comput. Molec. Sci., 2018 8(1)1-6
     doi.org/10.1002/wcms.1327
  6. Neese,F.; Wennmohs,F.; Becker,U.; Riplinger,C.
     The ORCA quantum chemistry program package
     J. Chem. Phys., 2020 152 Art. No. L224108
     doi.org/10.1063/5.0004608

List of optional additional citations

  1. Neese,F.
     Approximate second-order SCF convergence for spin unrestricted wavefunctions
     Chem. Phys. Lett., 2000 325(1-3)93-98
     doi.org/10.1016/s0009-2614(00)00662-x

Timings for individual modules:

Sum of individual times          ...      171.849 sec (=   2.864 min)
Startup calculation              ...        8.305 sec (=   0.138 min)   4.8 %
SCF iterations                   ...       50.558 sec (=   0.843 min)  29.4 %
Property integrals               ...       27.864 sec (=   0.464 min)  16.2 %
SCF Response                     ...       15.504 sec (=   0.258 min)   9.0 %
Property calculations            ...       36.515 sec (=   0.609 min)  21.2 %
SCF Gradient evaluation          ...       33.068 sec (=   0.551 min)  19.2 %
Geometry relaxation              ...        0.035 sec (=   0.001 min)   0.0 %
                             ****ORCA TERMINATED NORMALLY****
TOTAL RUN TIME: 0 days 0 hours 2 minutes 55 seconds 940 msec
