
                                 *****************
                                 * O   R   C   A *
                                 *****************

                                            #,                                       
                                            ###                                      
                                            ####                                     
                                            #####                                    
                                            ######                                   
                                           ########,                                 
                                     ,,################,,,,,                         
                               ,,#################################,,                 
                          ,,##########################################,,             
                       ,#########################################, ''#####,          
                    ,#############################################,,   '####,        
                  ,##################################################,,,,####,       
                ,###########''''           ''''###############################       
              ,#####''   ,,,,##########,,,,          '''####'''          '####       
            ,##' ,,,,###########################,,,                        '##       
           ' ,,###''''                  '''############,,,                           
         ,,##''                                '''############,,,,        ,,,,,,###''
      ,#''                                            '''#######################'''  
     '                                                          ''''####''''         
             ,#######,   #######,   ,#######,      ##                                
            ,#'     '#,  ##    ##  ,#'     '#,    #''#        ,####,   ,####,        
            ##       ##  ##   ,#'  ##            #'  '#       #'       #'  '#        
            ##       ##  #######   ##           ,######,      #####,   #    #        
            '#,     ,#'  ##    ##  '#,     ,#' ,#      #,     #,   #   #,  ,#        
             '#######'   ##     ##  '#######'  #'      '#     '####' # '####'        



                #########################################################
                #                        -***-                          #
                #          Department of theory and spectroscopy        #
                #                                                       #
                #                      Frank Neese                      #
                #                                                       #
                #     Directorship, Architecture, Infrastructure        #
                #                    SHARK, DRIVERS                     #
                #        Core code/Algorithms in most modules           #
                #                                                       #
                #        Max Planck Institute fuer Kohlenforschung      #
                #                Kaiser Wilhelm Platz 1                 #
                #                 D-45470 Muelheim/Ruhr                 #
                #                      Germany                          #
                #                                                       #
                #                  All rights reserved                  #
                #                        -***-                          #
                #########################################################


                         Program Version 6.0.1  -  RELEASE   -


 With contributions from (in alphabetic order):
[Max-Planck-Institut fuer Kohlenforschung]                               
  Daniel Aravena         : Magnetic Suceptibility                        
  Michael Atanasov       : Ab Initio Ligand Field Theory (pilot matlab implementation)
  Alexander A. Auer      : GIAO ZORA, VPT2 properties, NMR spectrum      
  Ute Becker             : All parallelization in ORCA, NUMFREQ, NUMCALC 
  Giovanni Bistoni       : ED, misc. LED, open-shell LED, HFLD           
  Martin Brehm           : Molecular dynamics                            
  Dmytro Bykov           : pre 5.0 version of the SCF Hessian            
  Marcos Casanova-Páez   : Triplet and SCS-CIS(D). UHF-(DLPNO)-IP/EA/STEOM-CCSD. UHF-CVS-IP/STEOM-CCSD   
  Vijay G. Chilkuri      : MRCI spin determinant printing, contributions to CSF-ICE 
  Pauline Colinet        : FMM embedding                                 
  Dipayan Datta          : RHF DLPNO-CCSD density                        
  Achintya Kumar Dutta   : EOM-CC, STEOM-CC                              
  Nicolas Foglia         : Exact transition moments, OPA infrastructure, MCD improvements    
  Dmitry Ganyushin       : Spin-Orbit,Spin-Spin,Magnetic field MRCI      
  Miquel Garcia-Rates    : C-PCM and meta-GGA Hessian, CCSD/C-PCM, Gaussian charge scheme 
  Tiago L. C. Gouveia    : GS-ROHF, GS-ROCIS                             
  Yang Guo               : DLPNO-NEVPT2, F12-NEVPT2, CIM, IAO-localization        
  Andreas Hansen         : Spin unrestricted coupled pair/coupled cluster methods 
  Ingolf Harden          : AUTO-CI MPn and infrastructure                
  Benjamin Helmich-Paris : MC-RPA, TRAH-(SCF,CASSCF), AVAS, COSX integrals, SCF dyn. polar. 
  Lee Huntington         : MR-EOM, pCC                                   
  Robert Izsak           : Overlap fitted RIJCOSX, COSX-SCS-MP3, EOM     
  Riya Kayal             : Wick's Theorem for AUTO-CI, AUTO-CI UHF-CCSDT 
  Emily Kempfer          : AUTO-CI, RHF CISDT and CCSDT                  
  Christian Kollmar      : KDIIS, OOCD, Brueckner-CCSD(T), CCSD density, CASPT2, CASPT2-K, improved NEVPT2 
  Axel Koslowski         : Symmetry handling                             
  Simone Kossmann        : meta-GGA functionals, TD-DFT gradient, OOMP2, (MP2 Hessian; deprecated post 5.0) 
  Lucas Lang             : DCDCAS                                        
  Marvin Lechner         : AUTO-CI (C++ implementation), FIC-MRCC        
  Spencer Leger          : CASSCF response                               
  Dagmar Lenk            : GEPOL surface, SMD, ORCA-2-JSON               
  Dimitrios Liakos       : Extrapolation schemes; Compound Job, initial MDCI parallelization 
  Dimitrios Manganas     : Further ROCIS development; embedding schemes. LFT, Crystal Embedding 
  Dimitrios Pantazis     : SARC Basis sets                               
  Anastasios Papadopoulos: AUTO-CI, single reference methods and gradients 
  Taras Petrenko         : pre 6.0 DFT Hessian and TD-DFT gradient, (ASA, deprecated), ECA, 1-Electron XAS/XES, NRVS 
  Peter Pinski           : DLPNO-MP2, DLPNO-MP2 Gradient                 
  Christoph Reimann      : Effective Core Potentials                     
  Marius Retegan         : Local ZFS, SOC                                
  Christoph Riplinger    : Optimizer, TS searches, QM/MM, DLPNO-CCSD(T), (RO)-DLPNO pert. Triples 
  Michael Roemelt        : Original ROCIS implementation                 
  Masaaki Saitow         : Open-shell DLPNO-CCSD energy and density      
  Barbara Sandhoefer     : DKH picture change effects                    
  Kantharuban Sivalingam : CASSCF convergence/infrastructure, NEVPT2 and variants, FIC-MRCI 
  Bernardo de Souza      : ESD, SOC TD-DFT                               
  Georgi L. Stoychev     : AutoAux, RI-MP2 NMR, DLPNO-MP2 response, X2C  
  Van Anh Tran           : RI-MP2 g-tensors                              
  Willem Van den Heuvel  : Paramagnetic NMR                              
  Zikuan Wang            : NOTCH, Electric field optimization            
  Frank Wennmohs         : Technical directorship and infrastructure     
  Hang Xu                : AUTO-CI-Response properties                   
                                                                         
[FACCTs GmbH]                                                            
  Markus Bursch, Miquel Garcia-Rates, Christoph Riplinger, Bernardo de Souza, Georgi L. Stoychev 
                                                                 
  APM, Basis sets (HGBS, AHGBS, def-TZVP (Ac-Lr), def2-XVPD (La-Lu)), CI-OPT, improved COSX, DLPNO-Multilevel,           
  DOCKER, DRACO, updates on ESD, GOAT, IRC, LR-CPCM, MBIS, meta-GGA TD-DFT gradient, ML-optimized integration grids, 
  MM, NACMEs, nearIR, NEB, NEB-TS, NL-DFT gradient (VV10), 2- and 3-layer-ONIOM, interface openCOSMO-RS, QMMM,   
  Crystal-QMMM, SF, symmetry and pop. for TD-DFT, r2SCAN hybrids, SOLVATOR                                   
                                                                         
[Other institutions]                                                     
  V. Asgeirsson          : NEB                                           
  Christoph Bannwarth    : sTDA-DFT, sTD-DFT, PBEh-3c, B97-3c, D3        
  Sebastian Ehlert       : rSCAN, r2SCAN, r2SCAN-3c, D4, dhf basis sets  
  Marvin Friede          : D4 for Fr, Ra, Ac-Lr                          
  Lars Goerigk           : TD-DFT with DH, B97 family of functionals     
  Stefan Grimme          : VdW corrections, initial TS optimization, DFT functionals, gCP, sTDA/sTD-DF 
  Waldemar Hujo          : DFT-NL                                        
  H. Jonsson             : NEB                                           
  Holger Kruse           : gCP                                           
  Marcel Mueller         : wB97X-3c, vDZP basis set                      
  Hagen Neugebauer       : wr2SCAN                                       
  Tobias Risthaus        : range-separated hybrid DFT                    
  Lukas Wittmann         : regularized MP2, r2SCAN double-hybrids, wr2SCAN        
                                                                         
We gratefully acknowledge several colleagues who have allowed us to      
interface, adapt or use parts of their codes:                            
  Ed Valeev, F. Pavosevic, A. Kumar             : LibInt (2-el integral package), F12 methods 
  Garnet Chan, S. Sharma, J. Yang, R. Olivares  : DMRG                   
  Ulf Ekstrom                                   : XCFun DFT Library      
  Mihaly Kallay                                 : mrcc  (arbitrary order and MRCC methods)
  Frank Weinhold                                : gennbo (NPA and NBO analysis)           
  Simon Mueller                                 : openCOSMO-RS                            
  Christopher J. Cramer and Donald G. Truhlar   : smd solvation model                     
  S Lehtola, MJT Oliveira, MAL Marques          : LibXC Library                           
  Liviu Ungur et al                             : ANISO software                          


 Your calculation uses the libint2 library for the computation of 2-el integrals
 For citations please refer to: http://libint.valeyev.net

 Your ORCA version has been built with support for libXC version: 6.2.2
 For citations please refer to: https://libxc.gitlab.io

 This ORCA versions uses:
   CBLAS   interface :  Fast vector & matrix operations
   LAPACKE interface :  Fast linear algebra routines
   SCALAPACK package :  Parallel linear algebra routines
   Shared memory     :  Shared parallel matrices
   BLAS/LAPACK       :  OpenBLAS 0.3.27  USE64BITINT DYNAMIC_ARCH NO_AFFINITY SkylakeX SINGLE_THREADED
        Core in use  :  SkylakeX
   Copyright (c) 2011-2014, The OpenBLAS Project


NOTE: MaxCore=3000 MB was set to SCF,MP2,MDCI,CIPSI,MRCI and CIS
      => If you want to overwrite this, your respective input block should be placed after the MaxCore statement


***************************************
The coordinates will be read from file: alanine_gas_xtb.xyz
***************************************


Warning: RI is on but no J-basis has been assigned. Assigning Def2/J (nothing to worry about!)
================================================================================

----- Orbital basis set information -----
Your calculation utilizes the basis: def2-TZVP
   F. Weigend and R. Ahlrichs, Phys. Chem. Chem. Phys. 7, 3297 (2005).

----- AuxJ basis set information -----
Your calculation utilizes the auxiliary basis: def2/J
   F. Weigend, Phys. Chem. Chem. Phys. 8, 1057 (2006).

================================================================================
                                        WARNINGS
                       Please study these warnings very carefully!
================================================================================


WARNING: Geometry Optimization
  ===> : Switching off AutoStart
         For restart on a previous wavefunction, please use MOREAD

================================================================================
                                       INPUT FILE
================================================================================
NAME = alanine_gas.inp
|  1> # ORCA input file for alanine gas phase optimization and frequency calculation
|  2> # PBE0/def2-TZVP
|  3> 
|  4> ! OPT FREQ PBE0 def2-TZVP
|  5> 
|  6> %MaxCore 3000
|  7> 
|  8> %pal
|  9>    nprocs 8
| 10>    nprocs_group 4
| 11> end
| 12> 
| 13> %output
| 14> Print[ P_Basis ] 2
| 15> Print[ P_MOs ] 1
| 16> Print[P_hirshfeld] 1
| 17> end
| 18> 
| 19> * xyzfile 0 1 alanine_gas_xtb.xyz
| 20> 
| 21>                          ****END OF INPUT****
================================================================================

                       *****************************
                       * Geometry Optimization Run *
                       *****************************

Geometry optimization settings:
Update method            Update   .... BFGS
Choice of coordinates    CoordSys .... (2022) Redundant Internals
Initial Hessian          InHess   .... Almloef's Model
Max. no of cycles        MaxIter  .... 50

Convergence Tolerances:
Energy Change            TolE     ....  5.0000e-06 Eh
Max. Gradient            TolMAXG  ....  3.0000e-04 Eh/bohr
RMS Gradient             TolRMSG  ....  1.0000e-04 Eh/bohr
Max. Displacement        TolMAXD  ....  4.0000e-03 bohr
RMS Displacement         TolRMSD  ....  2.0000e-03 bohr
Strict Convergence                .... False

------------------------------------------------------------------------------
                        ORCA OPTIMIZATION COORDINATE SETUP
------------------------------------------------------------------------------

The optimization will be done in redundant internal coordinates (2022)
Making redundant internal coordinates   ...  (2022 redundants) done
Evaluating the initial hessian          ...  (Almloef) done
Evaluating the coordinates              ...  done
Calculating the B-matrix                .... done
Calculating the G-matrix                .... done
Diagonalizing the G-matrix              .... done
The first mode is                       ....   17
The number of degrees of freedom        ....   33

    -----------------------------------------------------------------
                    Redundant Internal Coordinates


    -----------------------------------------------------------------
         Definition                    Initial Value    Approx d2E/dq
    -----------------------------------------------------------------
      1. B(C   1,C   0)                  1.5413         0.358355   
      2. B(N   2,C   1)                  1.4500         0.448885   
      3. B(C   3,C   1)                  1.5188         0.389318   
      4. B(O   4,C   3)                  1.3382         0.677011   
      5. B(O   5,C   3)                  1.2005         1.122427   
      6. B(H   6,C   0)                  1.0869         0.364185   
      7. B(H   7,C   0)                  1.0882         0.362537   
      8. B(H   8,C   0)                  1.0888         0.361638   
      9. B(H   9,C   1)                  1.0957         0.352587   
     10. B(H  10,N   2)                  1.0140         0.426423   
     11. B(H  11,O   4)                  2.3596         0.003041   
     12. B(H  11,N   2)                  1.0149         0.424927   
     13. B(H  12,O   4)                  0.9701         0.500998   
     14. A(H   6,C   0,H   8)          108.9547         0.291551   
     15. A(C   1,C   0,H   6)          110.3747         0.322710   
     16. A(H   7,C   0,H   8)          108.9037         0.291343   
     17. A(H   6,C   0,H   7)          108.7277         0.291665   
     18. A(C   1,C   0,H   8)          110.0552         0.322339   
     19. A(C   1,C   0,H   7)          109.7905         0.322470   
     20. A(N   2,C   1,H   9)          108.2148         0.331130   
     21. A(N   2,C   1,C   3)          110.2150         0.375305   
     22. A(C   0,C   1,N   2)          114.5135         0.369985   
     23. A(C   0,C   1,C   3)          107.0210         0.363332   
     24. A(C   3,C   1,H   9)          107.4838         0.325397   
     25. A(C   0,C   1,H   9)          109.1764         0.321004   
     26. A(H  10,N   2,H  11)          108.2745         0.301674   
     27. A(C   1,N   2,H  11)          110.0571         0.338633   
     28. A(C   1,N   2,H  10)          110.1261         0.338831   
     29. A(O   4,C   3,O   5)          122.5052         0.485018   
     30. A(C   1,C   3,O   5)          124.8930         0.441303   
     31. A(C   1,C   3,O   4)          112.5314         0.403211   
     32. A(C   3,O   4,H  12)          110.0619         0.373369   
     33. D(N   2,C   1,C   0,H   6)    178.7376         0.010309   
     34. D(N   2,C   1,C   0,H   7)    -61.4185         0.010309   
     35. D(C   3,C   1,C   0,H   8)    -64.0213         0.010309   
     36. D(C   3,C   1,C   0,H   7)    176.1174         0.010309   
     37. D(C   3,C   1,C   0,H   6)     56.2734         0.010309   
     38. D(N   2,C   1,C   0,H   8)     58.4429         0.010309   
     39. D(H  10,N   2,C   1,C   0)     54.5649         0.017188   
     40. D(H  11,N   2,C   1,C   0)    -64.7310         0.017188   
     41. D(H  10,N   2,C   1,H   9)    -67.4488         0.017188   
     42. D(H  11,N   2,C   1,C   3)     55.9830         0.017188   
     43. D(H  10,N   2,C   1,C   3)    175.2790         0.017188   
     44. D(O   4,C   3,C   1,H   9)   -160.5912         0.011278   
     45. D(O   4,C   3,C   1,N   2)    -42.8667         0.011278   
     46. D(O   5,C   3,C   1,C   0)    -94.7633         0.011278   
     47. D(O   4,C   3,C   1,C   0)     82.2415         0.011278   
     48. D(O   5,C   3,C   1,N   2)    140.1285         0.011278   
     49. D(H  12,O   4,C   3,O   5)     -2.2407         0.037683   
     50. D(H  12,O   4,C   3,C   1)   -179.3276         0.037683   
    -----------------------------------------------------------------

Number of atoms                         .... 13
Number of degrees of freedom            .... 50


         *************************************************************
         *                GEOMETRY OPTIMIZATION CYCLE   1            *
         *************************************************************
---------------------------------
CARTESIAN COORDINATES (ANGSTROEM)
---------------------------------
  C     -0.978983    0.575482   -0.809924
  C     -0.286373   -0.539362   -0.001783
  N     -0.535446   -0.490986    1.425854
  C      1.202886   -0.429526   -0.278705
  O      1.797715    0.500908    0.477022
  O      1.793755   -1.055237   -1.115747
  H     -0.729972    0.488987   -1.864404
  H     -2.058413    0.495295   -0.698119
  H     -0.658595    1.551815   -0.449789
  H     -0.619542   -1.514319   -0.374747
  H     -1.533293   -0.486123    1.605966
  H     -0.136727    0.354914    1.820287
  H      2.742988    0.548151    0.264089

----------------------------
CARTESIAN COORDINATES (A.U.)
----------------------------
  NO LB      ZA    FRAG     MASS         X           Y           Z
   0 C     6.0000    0    12.011   -1.850009    1.087503   -1.530534
   1 C     6.0000    0    12.011   -0.541167   -1.019246   -0.003369
   2 N     7.0000    0    14.007   -1.011846   -0.927829    2.694474
   3 C     6.0000    0    12.011    2.273126   -0.811687   -0.526677
   4 O     8.0000    0    15.999    3.397189    0.946578    0.901440
   5 O     8.0000    0    15.999    3.389705   -1.994110   -2.108457
   6 H     1.0000    0     1.008   -1.379447    0.924052   -3.523212
   7 H     1.0000    0     1.008   -3.889837    0.935972   -1.319254
   8 H     1.0000    0     1.008   -1.244564    2.932506   -0.849978
   9 H     1.0000    0     1.008   -1.170765   -2.861648   -0.708169
  10 H     1.0000    0     1.008   -2.897503   -0.918640    3.034836
  11 H     1.0000    0     1.008   -0.258377    0.670691    3.439844
  12 H     1.0000    0     1.008    5.183496    1.035855    0.499055

--------------------------------
INTERNAL COORDINATES (ANGSTROEM)
--------------------------------
 C      0   0   0     0.000000000000     0.00000000     0.00000000
 C      1   0   0     1.541322651631     0.00000000     0.00000000
 N      2   1   0     1.450008721559   114.51350796     0.00000000
 C      2   1   3     1.518763885272   107.02096273   237.53581526
 O      4   2   1     1.338152044665   112.53141770    82.24145023
 O      4   2   1     1.200532884516   124.89302625   265.23670258
 H      1   2   3     1.086929419815   110.37471246   178.73759751
 H      1   2   3     1.088163749645   109.79051907   298.58153865
 H      1   2   3     1.088839791572   110.05520925    58.44288421
 H      2   1   3     1.095739584473   109.17638749   121.48790024
 H      3   2   1     1.013983087447   110.12610045    54.56491543
 H      3   2   1     1.014939209776   110.05705426   295.26898467
 H      5   4   2     0.970110301857   110.06190933   180.67235701

---------------------------
INTERNAL COORDINATES (A.U.)
---------------------------
 C      0   0   0     0.000000000000     0.00000000     0.00000000
 C      1   0   0     2.912677695592     0.00000000     0.00000000
 N      2   1   0     2.740119375543   114.51350796     0.00000000
 C      2   1   3     2.870047805254   107.02096273   237.53581526
 O      4   2   1     2.528740889964   112.53141770    82.24145023
 O      4   2   1     2.268678366503   124.89302625   265.23670258
 H      1   2   3     2.053998930352   110.37471246   178.73759751
 H      1   2   3     2.056331475690   109.79051907   298.58153865
 H      1   2   3     2.057609009787   110.05520925    58.44288421
 H      2   1   3     2.070647728750   109.17638749   121.48790024
 H      3   2   1     1.916150339703   110.12610045    54.56491543
 H      3   2   1     1.917957149055   110.05705426   295.26898467
 H      5   4   2     1.833242790205   110.06190933   180.67235701

---------------------
BASIS SET INFORMATION
---------------------
There are 4 groups of distinct atoms

 Group   1 Type C   : 11s6p2d1f contracted to 5s3p2d1f pattern {62111/411/11/1}
 Group   2 Type N   : 11s6p2d1f contracted to 5s3p2d1f pattern {62111/411/11/1}
 Group   3 Type O   : 11s6p2d1f contracted to 5s3p2d1f pattern {62111/411/11/1}
 Group   4 Type H   : 5s1p contracted to 3s1p pattern {311/1}

Atom   0C    basis set group =>   1
Atom   1C    basis set group =>   1
Atom   2N    basis set group =>   2
Atom   3C    basis set group =>   1
Atom   4O    basis set group =>   3
Atom   5O    basis set group =>   3
Atom   6H    basis set group =>   4
Atom   7H    basis set group =>   4
Atom   8H    basis set group =>   4
Atom   9H    basis set group =>   4
Atom  10H    basis set group =>   4
Atom  11H    basis set group =>   4
Atom  12H    basis set group =>   4

-------------------------
BASIS SET IN INPUT FORMAT
-------------------------

 # Basis set for element : H 
 NewGTO H 
 S 3 
   1      34.0613410000      0.0254393072
   2       5.1235746000      0.1900859489
   3       1.1646626000      0.8524411301
 S 1 
   1       0.3272304100      1.0000000000
 S 1 
   1       0.1030724100      1.0000000000
 P 1 
   1       0.8000000000      1.0000000000
  end;

 # Basis set for element : C 
 NewGTO C 
 S 6 
   1   13575.3496820000      0.0006064549
   2    2035.2333680000      0.0046979088
   3     463.2256235900      0.0243324776
   4     131.2001959800      0.0973999683
   5      42.8530158910      0.3019558425
   6      15.5841857660      0.6623360915
 S 2 
   1       6.2067138508      0.6559530854
   2       2.5764896527      0.3758563329
 S 1 
   1       0.5769633942      1.0000000000
 S 1 
   1       0.2297283136      1.0000000000
 S 1 
   1       0.0951644400      1.0000000000
 P 4 
   1      34.6972322440      0.0113272200
   2       7.9582622826      0.0761696592
   3       2.3780826883      0.3019225220
   4       0.8143320818      0.7278502735
 P 1 
   1       0.2888754725      1.0000000000
 P 1 
   1       0.1005682367      1.0000000000
 D 1 
   1       1.0970000000      1.0000000000
 D 1 
   1       0.3180000000      1.0000000000
 F 1 
   1       0.7610000000      1.0000000000
  end;

 # Basis set for element : N 
 NewGTO N 
 S 6 
   1   19730.8006470000      0.0005862639
   2    2957.8958745000      0.0045428821
   3     673.2213359500      0.0235584136
   4     190.6824949400      0.0947091933
   5      62.2954418980      0.2971978492
   6      22.6541611820      0.6691624689
 S 2 
   1       8.9791477428      0.6459668363
   2       3.6863002370      0.3870057440
 S 1 
   1       0.8466007680      1.0000000000
 S 1 
   1       0.3364713377      1.0000000000
 S 1 
   1       0.1364765367      1.0000000000
 P 4 
   1      49.2003805100      0.0114488252
   2      11.3467905370      0.0784223379
   3       3.4273972411      0.3081809474
   4       1.1785525134      0.7202719637
 P 1 
   1       0.4164220497      1.0000000000
 P 1 
   1       0.1426082601      1.0000000000
 D 1 
   1       1.6540000000      1.0000000000
 D 1 
   1       0.4690000000      1.0000000000
 F 1 
   1       1.0930000000      1.0000000000
  end;

 # Basis set for element : O 
 NewGTO O 
 S 6 
   1   27032.3826310000      0.0005722733
   2    4052.3871392000      0.0044353233
   3     922.3272271000      0.0230201076
   4     261.2407098900      0.0928224906
   5      85.3546413510      0.2937850002
   6      31.0350352450      0.6740160450
 S 2 
   1      12.2608607280      0.6383993702
   2       4.9987076005      0.3953458713
 S 1 
   1       1.1703108158      1.0000000000
 S 1 
   1       0.4647474099      1.0000000000
 S 1 
   1       0.1850453636      1.0000000000
 P 4 
   1      63.2749548010      0.0120183321
   2      14.6270493790      0.0830054217
   3       4.4501223456      0.3199174393
   4       1.5275799647      0.7071554292
 P 1 
   1       0.5293511794      1.0000000000
 P 1 
   1       0.1747842127      1.0000000000
 D 1 
   1       2.3140000000      1.0000000000
 D 1 
   1       0.6450000000      1.0000000000
 F 1 
   1       1.4280000000      1.0000000000
  end;

---------------------------------
AUXILIARY/J BASIS SET INFORMATION
---------------------------------
There are 4 groups of distinct atoms

 Group   1 Type C   : 12s5p4d2f1g contracted to 6s4p3d1f1g pattern {711111/2111/211/2/1}
 Group   2 Type N   : 12s5p4d2f1g contracted to 6s4p3d1f1g pattern {711111/2111/211/2/1}
 Group   3 Type O   : 12s5p4d2f1g contracted to 6s4p3d1f1g pattern {711111/2111/211/2/1}
 Group   4 Type H   : 5s2p1d contracted to 3s1p1d pattern {311/2/1}

Atom   0C    basis set group =>   1
Atom   1C    basis set group =>   1
Atom   2N    basis set group =>   2
Atom   3C    basis set group =>   1
Atom   4O    basis set group =>   3
Atom   5O    basis set group =>   3
Atom   6H    basis set group =>   4
Atom   7H    basis set group =>   4
Atom   8H    basis set group =>   4
Atom   9H    basis set group =>   4
Atom  10H    basis set group =>   4
Atom  11H    basis set group =>   4
Atom  12H    basis set group =>   4

-------------------------------------
AUXILIARY/J BASIS SET IN INPUT FORMAT
-------------------------------------

 # Auxiliary/J basis set for element : H 
 NewAuxJGTO H 
 S 3 
   1      15.6752927000      0.1007184237
   2       3.6063578000      0.3404257499
   3       1.2080016000      0.6491996172
 S 1 
   1       0.4726794000      1.0000000000
 S 1 
   1       0.2018100000      1.0000000000
 P 2 
   1       2.0281365000      0.5596620919
   2       0.5358730000      0.5596620919
 D 1 
   1       2.2165124000      1.0000000000
  end;

 # Auxiliary/J basis set for element : C 
 NewAuxJGTO C 
 S 7 
   1    1861.0916331000      0.0134602335
   2     642.9939764000      0.0299160374
   3     235.1105725000      0.1008649584
   4      90.7028894000      0.2370970548
   5      36.7794552000      0.3924037254
   6      15.6046273000      0.3195862154
   7       6.8907294000      0.0530104441
 S 1 
   1       3.1478850000     -1.0000000000
 S 1 
   1       1.4777287000      1.0000000000
 S 1 
   1       0.7076466000      1.0000000000
 S 1 
   1       0.3430122000      1.0000000000
 S 1 
   1       0.1669453000      1.0000000000
 P 2 
   1      13.5472892000     -0.6769313712
   2       5.4669419000     -0.3779500978
 P 1 
   1       2.1751721000      1.0000000000
 P 1 
   1       0.8582194000      1.0000000000
 P 1 
   1       0.3376720000      1.0000000000
 D 2 
   1       5.9287253000     -0.3533329857
   2       1.9809209000     -0.7456525731
 D 1 
   1       0.8055417000     -1.0000000000
 D 1 
   1       0.3531244000     -1.0000000000
 F 2 
   1       1.6755626000      0.6311076882
   2       0.5997536000      0.4968166032
 G 1 
   1       1.0024600000     -1.0000000000
  end;

 # Auxiliary/J basis set for element : N 
 NewAuxJGTO N 
 S 7 
   1    2542.9401785000      0.0128431329
   2    1029.5472946000      0.0206655120
   3     424.9053546000      0.0652200677
   4     178.4573708000      0.1617388940
   5      76.1362742000      0.3094256941
   6      32.9338653000      0.3918849307
   7      14.4155436000      0.1822470660
 S 1 
   1       6.3718891000     -1.0000000000
 S 1 
   1       2.8381742000      1.0000000000
 S 1 
   1       1.2711793000      1.0000000000
 S 1 
   1       0.5712407000      1.0000000000
 S 1 
   1       0.2569887000      1.0000000000
 P 2 
   1      17.8975990000     -1.0974070137
   2       6.5346319000      0.1380055963
 P 1 
   1       2.3523645000      1.0000000000
 P 1 
   1       0.8397377000      1.0000000000
 P 1 
   1       0.2989335000      1.0000000000
 D 2 
   1       7.6909870000      0.1770780943
   2       2.3044972000      0.8918319220
 D 1 
   1       0.8403987000      1.0000000000
 D 1 
   1       0.3303797000      1.0000000000
 F 2 
   1       2.3331076000      0.6223178877
   2       0.8446137000      0.5036714203
 G 1 
   1       1.4037700000     -1.0000000000
  end;

 # Auxiliary/J basis set for element : O 
 NewAuxJGTO O 
 S 7 
   1    2876.8216605000      0.0168151159
   2    1004.7443032000      0.0340137548
   3     369.7579954000      0.1194951309
   4     142.9442404000      0.2664627624
   5      57.8366425000      0.4202764046
   6      24.3864983000      0.2765077335
   7      10.6622662000      0.0057008815
 S 1 
   1       4.8070437000     -1.0000000000
 S 1 
   1       2.2210770000      1.0000000000
 S 1 
   1       1.0447795000      1.0000000000
 S 1 
   1       0.4968425000      1.0000000000
 S 1 
   1       0.2371384000      1.0000000000
 P 2 
   1      64.2613382000     -0.2731534179
   2      16.3006076000     -0.8168011598
 P 1 
   1       4.3550542000      1.0000000000
 P 1 
   1       1.2019554000      1.0000000000
 P 1 
   1       0.3354196000      1.0000000000
 D 2 
   1       9.2146611000     -0.4661230638
   2       2.8435251000     -0.6600908911
 D 1 
   1       0.9955759000     -1.0000000000
 D 1 
   1       0.3649441000     -1.0000000000
 F 2 
   1       2.6420115000      0.5931563945
   2       0.7345613000      0.5931563945
 G 1 
   1       1.3931000000     -1.0000000000
  end;



           ************************************************************
           *        Program running with 8 parallel MPI-processes     *
           *              working on a common directory               *
           ************************************************************
------------------------------------------------------------------------------
                             ORCA STARTUP CALCULATIONS
                           -- RI-GTO INTEGRALS CHOSEN --
------------------------------------------------------------------------------
------------------------------------------------------------------------------
                   ___                                                        
                  /   \      - P O W E R E D   B Y -                         
                 /     \                                                     
                 |  |  |   _    _      __       _____    __    __             
                 |  |  |  | |  | |    /  \     |  _  \  |  |  /  |          
                  \  \/   | |  | |   /    \    | | | |  |  | /  /          
                 / \  \   | |__| |  /  /\  \   | |_| |  |  |/  /          
                |  |  |   |  __  | /  /__\  \  |    /   |      \           
                |  |  |   | |  | | |   __   |  |    \   |  |\   \          
                \     /   | |  | | |  |  |  |  | |\  \  |  | \   \       
                 \___/    |_|  |_| |__|  |__|  |_| \__\ |__|  \__/        
                                                                              
                      - O R C A' S   B I G   F R I E N D -                    
                                      &                                       
                       - I N T E G R A L  F E E D E R -                       
                                                                              
 v1 FN, 2020, v2 2021, v3 2022-2024                                           
------------------------------------------------------------------------------


----------------------
SHARK INTEGRAL PACKAGE
----------------------

Number of atoms                             ...     13
Number of basis functions                   ...    228
Number of shells                            ...     94
Maximum angular momentum                    ...      3
Integral batch strategy                     ... SHARK/LIBINT Hybrid
RI-J (if used) integral strategy            ... SPLIT-RIJ (Revised 2003 algorithm where possible)
Printlevel                                  ...      1
Contraction scheme used                     ... SEGMENTED contraction
Prescreening option                         ... SCHWARTZ
   Thresh                                   ... 2.500e-11
   Tcut                                     ... 2.500e-12
   Tpresel                                  ... 2.500e-12 
Coulomb Range Separation                    ... NOT USED
Exchange Range Separation                   ... NOT USED
Multipole approximations                    ... NOT USED
Finite Nucleus Model                        ... NOT USED
CABS basis                                  ... NOT available
Auxiliary Coulomb fitting basis             ... AVAILABLE
   # of basis functions in Aux-J            ...    371
   # of shells in Aux-J                     ...    125
   Maximum angular momentum in Aux-J        ...      4
Auxiliary J/K fitting basis                 ... NOT available
Auxiliary Correlation fitting basis         ... NOT available
Auxiliary 'external' fitting basis          ... NOT available

Checking pre-screening integrals            ... done (  0.0 sec) Dimension = 94
Check shell pair data                       ... done (  0.0 sec)
Shell pair information
Shell pair cut-off parameter TPreSel        ...   2.5e-12
Total number of shell pairs                 ...      4465
Shell pairs after pre-screening             ...      4253
Total number of primitive shell pairs       ...     13356
Primitive shell pairs kept                  ...      9903
          la=0 lb=0:   1219 shell pairs
          la=1 lb=0:   1225 shell pairs
          la=1 lb=1:    321 shell pairs
          la=2 lb=0:    581 shell pairs
          la=2 lb=1:    295 shell pairs
          la=2 lb=2:     77 shell pairs
          la=3 lb=0:    293 shell pairs
          la=3 lb=1:    149 shell pairs
          la=3 lb=2:     72 shell pairs
          la=3 lb=3:     21 shell pairs

Calculating one electron integrals          ... done (  0.0 sec)
Calculating RI/J V-Matrix + Cholesky decomp.... done (  0.0 sec)
Calculating Nuclear repulsion               ... done (  0.0 sec) ENN=    250.862227066418 Eh

Diagonalization of the overlap matrix:
Smallest eigenvalue                        ... 2.114e-04
Time for diagonalization                   ...    0.004 sec
Threshold for overlap eigenvalues          ... 1.000e-07
Number of eigenvalues below threshold      ... 0
Time for construction of square roots      ...    0.002 sec
Total time needed                          ...    0.007 sec

-------------------
DFT GRID GENERATION
-------------------

General Integration Accuracy     IntAcc      ... 4.388
Radial Grid Type                 RadialGrid  ... OptM3 with GC (2021)
Angular Grid (max. ang.)         AngularGrid ... 4 (Lebedev-302)
Angular grid pruning method      GridPruning ... 4 (adaptive)
Weight generation scheme         WeightScheme... mBecke (2022)
Basis function cutoff            BFCut       ... 1.0000e-11
Integration weight cutoff        WCut        ... 1.0000e-14
Partially contracted basis set               ... off
Rotationally invariant grid construction     ... off
Angular grids for H and He will be reduced by one unit

Total number of grid points                  ...    58892
Total number of batches                      ...      927
Average number of points per batch           ...       63
Average number of grid points per atom       ...     4530

--------------------
COSX GRID GENERATION
--------------------

GRIDX 1
-------
General Integration Accuracy     IntAcc      ... 3.816
Radial Grid Type                 RadialGrid  ... OptM3 with GC (2021)
Angular Grid (max. ang.)         AngularGrid ... 1 (Lebedev-50)
Angular grid pruning method      GridPruning ... 4 (adaptive)
Weight generation scheme         WeightScheme... mBecke (2022)
Basis function cutoff            BFCut       ... 1.0000e-11
Integration weight cutoff        WCut        ... 1.0000e-14
Partially contracted basis set               ... on
Rotationally invariant grid construction     ... off
Angular grids for H and He will be reduced by one unit

Total number of grid points                  ...     7542
Total number of batches                      ...       66
Average number of points per batch           ...      114
Average number of grid points per atom       ...      580
UseSFitting                                  ... on

GRIDX 2
-------
General Integration Accuracy     IntAcc      ... 4.020
Radial Grid Type                 RadialGrid  ... OptM3 with GC (2021)
Angular Grid (max. ang.)         AngularGrid ... 2 (Lebedev-110)
Angular grid pruning method      GridPruning ... 4 (adaptive)
Weight generation scheme         WeightScheme... mBecke (2022)
Basis function cutoff            BFCut       ... 1.0000e-11
Integration weight cutoff        WCut        ... 1.0000e-14
Partially contracted basis set               ... on
Rotationally invariant grid construction     ... off
Angular grids for H and He will be reduced by one unit

Total number of grid points                  ...    16284
Total number of batches                      ...      134
Average number of points per batch           ...      121
Average number of grid points per atom       ...     1253
UseSFitting                                  ... on

GRIDX 3
-------
General Integration Accuracy     IntAcc      ... 4.338
Radial Grid Type                 RadialGrid  ... OptM3 with GC (2021)
Angular Grid (max. ang.)         AngularGrid ... 3 (Lebedev-194)
Angular grid pruning method      GridPruning ... 4 (adaptive)
Weight generation scheme         WeightScheme... mBecke (2022)
Basis function cutoff            BFCut       ... 1.0000e-11
Integration weight cutoff        WCut        ... 1.0000e-14
Partially contracted basis set               ... on
Rotationally invariant grid construction     ... off
Angular grids for H and He will be reduced by one unit

Total number of grid points                  ...    35840
Total number of batches                      ...      286
Average number of points per batch           ...      125
Average number of grid points per atom       ...     2757
UseSFitting                                  ... on
Initializing property integral containers    ... done (  0.0 sec)

SHARK setup successfully completed in   0.5 seconds

Maximum memory used throughout the entire STARTUP-calculation: 20.6 MB


           ************************************************************
           *        Program running with 8 parallel MPI-processes     *
           *              working on a common directory               *
           ************************************************************
-------------------------------------------------------------------------------
                                 ORCA GUESS
                   Start orbitals & Density for SCF / CASSCF
-------------------------------------------------------------------------------

------------
SCF SETTINGS
------------
Hamiltonian:
 Density Functional     Method          .... DFT(GTOs)
 Exchange Functional    Exchange        .... PBE
   PBE kappa parameter   XKappa         ....  0.804000
   PBE mue parameter    XMuePBE         ....  0.219520
 Correlation Functional Correlation     .... PBE
   PBE beta parameter  CBetaPBE         ....  0.066725
 LDA part of GGA corr.  LDAOpt          .... PW91-LDA
 Gradients option       PostSCFGGA      .... off
 Hybrid DFT is turned on
   Fraction HF Exchange ScalHFX         ....  0.250000
   Scaling of DF-GGA-X  ScalDFX         ....  0.750000
   Scaling of DF-GGA-C  ScalDFC         ....  1.000000
   Scaling of DF-LDA-C  ScalLDAC        ....  1.000000
   Perturbative correction              ....  0.000000
   NL short-range parameter             ....  6.900000
 RI-approximation to the Coulomb term is turned on
   Number of AuxJ basis functions       .... 371
   RIJ-COSX (HFX calculated with COS-X)).... on


General Settings:
 Integral files         IntName         .... alanine_gas
 Hartree-Fock type      HFTyp           .... RHF
 Total Charge           Charge          ....    0
 Multiplicity           Mult            ....    1
 Number of Electrons    NEL             ....   48
 Basis Dimension        Dim             ....  228
 Nuclear Repulsion      ENuc            ....    250.8622270664 Eh

Convergence Acceleration:
 AO-DIIS                CNVDIIS         .... on
   Start iteration      DIISMaxIt       ....    12
   Startup error        DIISStart       ....  0.200000
   # of expansion vecs  DIISMaxEq       ....     5
   Bias factor          DIISBfac        ....   1.050
   Max. coefficient     DIISMaxC        ....  10.000
 MO-DIIS                CNVKDIIS        .... off
 Trust-Rad. Augm. Hess. CNVTRAH         .... auto
   Auto Start mean grad. ratio tolernc. ....  1.125000
   Auto Start start iteration           ....    50
   Auto Start num. interpolation iter.  ....    10
   Max. Number of Micro iterations      ....    24
   Max. Number of Macro iterations      .... Maxiter - #DIIS iter
   Number of Davidson start vectors     ....     2
   Converg. threshold    (grad. norm)   ....   1.000e-05
   Grad. Scal. Fac. for Micro threshold ....   0.100
   Minimum threshold for Micro iter.    ....   1.000e-02
   NR start threshold (gradient norm)   ....   1.000e-04
   Initial trust radius                 ....   0.400
   Minimum AH scaling param. (alpha)    ....   1.000
   Maximum AH scaling param. (alpha)    .... 1000.000
   Quad. conv. algorithm                .... NR
   White noise on init. David. guess    .... on
   Maximum white noise                  ....   0.010
   Pseudo random numbers                .... off
   Inactive MOs                         .... canonical
   Orbital update algorithm             .... Taylor
   Preconditioner                       .... Diag
   Full preconditioner red. dimension   ....   250
 SOSCF                  CNVSOSCF        .... on
   Start iteration      SOSCFMaxIt      ....   150
   Startup grad/error   SOSCFStart      ....  0.003300
   Hessian update       SOSCFHessUp     .... L-BFGS
 Level Shifting         CNVShift        .... on
   Level shift para.    LevelShift      ....    0.2500
   Turn off err/grad.   ShiftErr        ....    0.0010
 Zerner damping         CNVZerner       .... off
 Static damping         CNVDamp         .... on
   Fraction old density DampFac         ....    0.7000
   Max. Damping (<1)    DampMax         ....    0.9800
   Min. Damping (>=0)   DampMin         ....    0.0000
   Turn off err/grad.   DampErr         ....    0.1000

SCF Procedure:
 Maximum # iterations   MaxIter         ....   125
 SCF integral mode      SCFMode         .... Direct
   Integral package                     .... SHARK and LIBINT hybrid scheme
 Reset frequency        DirectResetFreq ....    20
 Integral Threshold     Thresh          ....  2.500e-11 Eh
 Primitive CutOff       TCut            ....  2.500e-12 Eh

Convergence Tolerance:
 Convergence Check Mode ConvCheckMode   .... Total+1el-Energy
 Convergence forced     ConvForced      .... 0
 Energy Change          TolE            ....  1.000e-08 Eh
 1-El. energy change                    ....  1.000e-05 Eh
 Orbital Gradient       TolG            ....  1.000e-05
 Orbital Rotation angle TolX            ....  1.000e-05
 DIIS Error             TolErr          ....  5.000e-07

------------------------------
INITIAL GUESS: MODEL POTENTIAL
------------------------------
Loading Hartree-Fock densities                     ... done
Calculating cut-offs                               ... done
Initializing the effective Hamiltonian             ... done
Setting up the integral package (SHARK)            ... done
Starting the Coulomb interaction                   ... done (   0.0 sec)
Making the grid                                    ... done (   0.0 sec)
Mapping shells                                     ... done
Starting the XC term evaluation                    ... done (   0.0 sec)
  promolecular density results
     # of electrons  =     47.996402739
     EX              =    -40.263817493
     EC              =     -1.594705081
     EX+EC           =    -41.858522574
Transforming the Hamiltonian                       ... done (   0.0 sec)
Diagonalizing the Hamiltonian                      ... done (   0.0 sec)
Back transforming the eigenvectors                 ... done (   0.0 sec)
Now organizing SCF variables                       ... done
                      ------------------
                      INITIAL GUESS DONE (   0.1 sec)
                      ------------------
             **** ENERGY FILE WAS UPDATED (alanine_gas.en.tmp) ****
Finished Guess after   0.2 sec
Maximum memory used throughout the entire GUESS-calculation: 13.5 MB


           ************************************************************
           *        Program running with 8 parallel MPI-processes     *
           *              working on a common directory               *
           ************************************************************

-------------------------------------------------------------------------------------------
                                      ORCA LEAN-SCF
                              memory conserving SCF solver
-------------------------------------------------------------------------------------------

----------------------------------------D-I-I-S--------------------------------------------
Iteration    Energy (Eh)           Delta-E    RMSDP     MaxDP     DIISErr   Damp  Time(sec)
-------------------------------------------------------------------------------------------
               ***  Starting incremental Fock matrix formation  ***
    1    -323.2593951212332968     0.00e+00  2.03e-03  8.57e-02  2.66e-01  0.700   0.7
    2    -323.3818233264639730    -1.22e-01  1.49e-03  6.91e-02  1.25e-01  0.700   0.5
                               ***Turning on AO-DIIS***
    3    -323.4269580237361197    -4.51e-02  5.25e-04  1.96e-02  3.97e-02  0.700   0.5
    4    -323.4543814198104883    -2.74e-02  7.05e-04  1.87e-02  1.88e-02  0.000   0.5
    5    -323.5154561445280024    -6.11e-02  2.85e-04  1.49e-02  7.69e-03  0.000   0.5
                              *** Initializing SOSCF ***
---------------------------------------S-O-S-C-F--------------------------------------
Iteration    Energy (Eh)           Delta-E    RMSDP     MaxDP     MaxGrad    Time(sec)
--------------------------------------------------------------------------------------
    6    -323.5157491584601530    -2.93e-04  9.66e-05  3.75e-03  1.92e-03     0.5
               *** Restarting incremental Fock matrix formation ***
    7    -323.5157500974127061    -9.39e-07  5.90e-05  1.79e-03  2.17e-04     0.9
    8    -323.5157514992210963    -1.40e-06  1.76e-05  6.41e-04  1.31e-04     0.7
    9    -323.5157521387757242    -6.40e-07  1.17e-05  3.82e-04  4.36e-05     0.6
   10    -323.5157522029485335    -6.42e-08  1.60e-06  7.13e-05  1.36e-05     0.6
   11    -323.5157522126370395    -9.69e-09  1.79e-06  6.58e-05  1.45e-05     0.5
                 **** Energy Check signals convergence ****

               *****************************************************
               *                     SUCCESS                       *
               *           SCF CONVERGED AFTER  11 CYCLES          *
               *****************************************************

Recomputing exchange energy using gridx3       ... done (    1.276 sec)
Old exchange energy                            :    -10.285951693 Eh
New exchange energy                            :    -10.285968127 Eh
Exchange energy change after final integration :     -0.000016434 Eh
Total energy after final integration           :   -323.515768646 Eh
             **** ENERGY FILE WAS UPDATED (alanine_gas.en.tmp) ****

----------------
TOTAL SCF ENERGY
----------------

Total Energy       :       -323.51576864622581 Eh           -8803.31162 eV

Components:
Nuclear Repulsion  :        250.86222706641846 Eh            6826.30824 eV
Electronic Energy  :       -574.37797927905547 Eh          -15629.61941 eV
One Electron Energy:       -937.80219475107060 Eh          -25518.89507 eV
Two Electron Energy:        363.42421547201513 Eh            9889.27566 eV

Virial components:
Potential Energy   :       -645.66019797821286 Eh          -17569.30719 eV
Kinetic Energy     :        322.14442933198700 Eh            8765.99558 eV
Virial Ratio       :          2.00425690835965

DFT components:
N(Alpha)           :       23.999982162841 electrons
N(Beta)            :       23.999982162841 electrons
N(Total)           :       47.999964325682 electrons
E(X)               :      -30.800035314050 Eh       
E(C)               :       -1.605687072050 Eh       
E(XC)              :      -32.405722386100 Eh       

---------------
SCF CONVERGENCE
---------------

  Last Energy change         ...    9.6885e-09  Tolerance :   1.0000e-08
  Last MAX-Density change    ...    6.5794e-05  Tolerance :   1.0000e-07
  Last RMS-Density change    ...    1.7864e-06  Tolerance :   5.0000e-09
  Last DIIS Error            ...    1.9189e-03  Tolerance :   5.0000e-07
  Last Orbital Gradient      ...    1.4540e-05  Tolerance :   1.0000e-05
  Last Orbital Rotation      ...    2.3679e-05  Tolerance :   1.0000e-05


----------------
ORBITAL ENERGIES
----------------

  NO   OCC          E(Eh)            E(eV) 
   0   2.0000     -19.261388      -524.1290 
   1   2.0000     -19.194962      -522.3215 
   2   2.0000     -14.370085      -391.0299 
   3   2.0000     -10.354788      -281.7681 
   4   2.0000     -10.271453      -279.5005 
   5   2.0000     -10.223118      -278.1852 
   6   2.0000      -1.148697       -31.2576 
   7   2.0000      -1.052421       -28.6378 
   8   2.0000      -0.928976       -25.2787 
   9   2.0000      -0.778783       -21.1917 
  10   2.0000      -0.697409       -18.9775 
  11   2.0000      -0.628616       -17.1055 
  12   2.0000      -0.536846       -14.6083 
  13   2.0000      -0.511248       -13.9118 
  14   2.0000      -0.492651       -13.4057 
  15   2.0000      -0.478709       -13.0263 
  16   2.0000      -0.448428       -12.2023 
  17   2.0000      -0.432662       -11.7733 
  18   2.0000      -0.425135       -11.5685 
  19   2.0000      -0.393982       -10.7208 
  20   2.0000      -0.381081       -10.3697 
  21   2.0000      -0.343929        -9.3588 
  22   2.0000      -0.297888        -8.1060 
  23   2.0000      -0.260887        -7.0991 
  24   0.0000       0.009632         0.2621 
  25   0.0000       0.028885         0.7860 
  26   0.0000       0.055054         1.4981 
  27   0.0000       0.086564         2.3555 
  28   0.0000       0.087245         2.3741 
  29   0.0000       0.114363         3.1120 
  30   0.0000       0.127201         3.4613 
  31   0.0000       0.139858         3.8057 
  32   0.0000       0.150565         4.0971 
  33   0.0000       0.167714         4.5637 
  34   0.0000       0.188848         5.1388 
*Only the first 10 virtual orbitals were printed.
------------------
MOLECULAR ORBITALS (RHF, ROHF)
------------------
                      0         1         2         3         4         5   
                 -19.26139 -19.19496 -14.37009 -10.35479 -10.27145 -10.22312
                   2.00000   2.00000   2.00000   2.00000   2.00000   2.00000
                  --------  --------  --------  --------  --------  --------
  0C   1s        -0.000001  0.000005  0.000001 -0.000020 -0.001046  0.467110
  0C   2s         0.000005 -0.000023 -0.000002  0.000032 -0.001429  0.608664
  0C   3s         0.000175  0.000174  0.000096 -0.000568  0.000030  0.034892
  0C   4s        -0.001770  0.000259  0.001220  0.000973 -0.003425 -0.017574
  0C   5s         0.006087 -0.004123  0.001077 -0.003746  0.018498  0.026257
  0C   1pz        0.000013  0.000032  0.000109 -0.000015 -0.000151  0.000210
  0C   1px       -0.000056  0.000076 -0.000026 -0.000161 -0.000158  0.000231
  0C   1py        0.000011 -0.000032 -0.000043  0.000076  0.000186 -0.000242
  0C   2pz       -0.000700  0.000053  0.000154 -0.000136 -0.000124 -0.001173
  0C   2px       -0.000115 -0.000060  0.000363 -0.000373  0.000334 -0.001268
  0C   2py        0.000693 -0.000447 -0.000084  0.000200  0.000244  0.001339
  0C   3pz       -0.000395 -0.001450  0.000519 -0.001011  0.003294  0.000210
  0C   3px        0.001955 -0.001174  0.000640 -0.001989  0.002691  0.001447
  0C   3py       -0.001258  0.000359 -0.000919  0.000347 -0.004163 -0.000647
  0C   1dz2       0.000037 -0.000014  0.000079  0.000109 -0.000033  0.000030
  0C   1dxz      -0.000009  0.000024 -0.000031  0.000023  0.000013 -0.000025
  0C   1dyz      -0.000017 -0.000008 -0.000010  0.000024 -0.000110  0.000056
  0C   1dx2y2    -0.000011  0.000050 -0.000003 -0.000128 -0.000017  0.000057
  0C   1dxy       0.000076 -0.000054 -0.000028  0.000068 -0.000064  0.000053
  0C   2dz2       0.000134 -0.000113 -0.001166 -0.000407  0.000212 -0.000158
  0C   2dxz      -0.000182 -0.000100  0.000363 -0.000307  0.000651 -0.000471
  0C   2dyz       0.000439 -0.000170  0.000149 -0.000106 -0.000487  0.000724
  0C   2dx2y2     0.000246 -0.000142  0.000261  0.000812 -0.000601  0.000263
  0C   2dxy       0.000001 -0.000016  0.000018  0.000003 -0.000613  0.000593
  0C   1f0        0.000024 -0.000008 -0.000088  0.000017 -0.000247 -0.001037
  0C   1f+1       0.000022 -0.000018 -0.000103  0.000019  0.000028  0.000702
  0C   1f-1      -0.000002  0.000005  0.000157 -0.000003 -0.000146 -0.000253
  0C   1f+2       0.000024  0.000005  0.000062  0.000002 -0.000279 -0.000280
  0C   1f-2       0.000048 -0.000023 -0.000047 -0.000025 -0.000655  0.000191
  0C   1f+3      -0.000087 -0.000005 -0.000006  0.000012  0.000301  0.000969
  0C   1f-3       0.000007 -0.000008  0.000054  0.000066 -0.000054  0.000389
  1C   1s         0.000005 -0.000010  0.000007  0.000687 -0.467218 -0.001099
  1C   2s        -0.000023  0.000045 -0.000035  0.000957 -0.608581 -0.001383
  1C   3s        -0.000457  0.000196 -0.001896 -0.000312 -0.035695  0.000466
  1C   4s         0.005184 -0.003362  0.009659  0.006317  0.020268 -0.001192
  1C   5s        -0.008156  0.005199 -0.021084 -0.005658 -0.047252  0.005518
  1C   1pz       -0.000001 -0.000031 -0.000173 -0.000114 -0.000161 -0.000280
  1C   1px        0.000107 -0.000099  0.000044  0.000144 -0.000414 -0.000129
  1C   1py       -0.000060  0.000025 -0.000044  0.000017 -0.000504  0.000268
  1C   2pz       -0.000209  0.001374  0.008004 -0.000086 -0.003604  0.001766
  1C   2px        0.001719 -0.002196 -0.001730  0.003781  0.002024 -0.001500
  1C   2py        0.001424 -0.000010  0.000584  0.000232  0.003197 -0.000800
  1C   3pz        0.002830  0.001157 -0.002701  0.000656  0.002175  0.003410
  1C   3px       -0.001580 -0.000679 -0.001765 -0.003247 -0.001649  0.003468
  1C   3py        0.000162  0.003004 -0.002118  0.002247 -0.003095  0.000119
  1C   1dz2      -0.000028  0.000057  0.000303  0.000017 -0.000284  0.000041
  1C   1dxz      -0.000090  0.000099 -0.000172 -0.000079  0.000127  0.000050
  1C   1dyz       0.000055 -0.000096 -0.000056  0.000085 -0.000056  0.000023
  1C   1dx2y2     0.000059 -0.000074 -0.000008 -0.000064 -0.000020 -0.000040
  1C   1dxy       0.000013 -0.000016  0.000058  0.000041 -0.000084  0.000071
  1C   2dz2      -0.000052  0.000485  0.003456  0.000197 -0.001504  0.000864
  1C   2dxz       0.000284  0.000268 -0.000386  0.000712  0.000403 -0.001172
  1C   2dyz      -0.000929  0.000803  0.000842 -0.000456 -0.000987  0.001576
  1C   2dx2y2     0.000735 -0.000986  0.000060  0.000309  0.001186  0.000080
  1C   2dxy      -0.000439  0.000416 -0.000546 -0.000287 -0.000692  0.000678
  1C   1f0        0.000106 -0.000013  0.000220 -0.000105 -0.001086 -0.000236
  1C   1f+1      -0.000022  0.000041 -0.000103  0.000397  0.000361 -0.000035
  1C   1f-1       0.000023 -0.000016  0.000056 -0.000031 -0.000233 -0.000091
  1C   1f+2      -0.000085  0.000090  0.000060  0.000324 -0.000350 -0.000281
  1C   1f-2      -0.000020  0.000098 -0.000022  0.000130  0.000263 -0.000721
  1C   1f+3      -0.000092  0.000117 -0.000056  0.000543  0.000586  0.000418
  1C   1f-3       0.000092 -0.000070 -0.000027  0.000002  0.000260  0.000016
  2N   1s         0.000004 -0.000001  0.448651  0.000002  0.000029  0.000001
  2N   2s        -0.000022  0.000005  0.626955 -0.000007  0.000099  0.000004
  2N   3s         0.000244 -0.000006  0.035897  0.000017 -0.001354  0.000059
  2N   4s        -0.000674 -0.000265 -0.031310 -0.000043  0.002736 -0.000204
  2N   5s         0.000356 -0.001354  0.022264 -0.000741  0.006897 -0.006160
  2N   1pz       -0.000020 -0.000027 -0.001632 -0.000049  0.000627 -0.000103
  2N   1px        0.000044 -0.000013 -0.000495  0.000083 -0.000128 -0.000032
  2N   1py       -0.000027  0.000042  0.001278 -0.000011  0.000048  0.000045
  2N   2pz        0.000211  0.000360  0.007206  0.000486 -0.003830  0.001103
  2N   2px       -0.000083 -0.000052 -0.001128 -0.000919  0.000809  0.000183
  2N   2py        0.000240 -0.000209 -0.000688  0.000220 -0.000382 -0.000258
  2N   3pz       -0.000105  0.000367 -0.002743  0.000238 -0.003007  0.001942
  2N   3px        0.000738  0.000440 -0.000403 -0.000851  0.000750  0.000037
  2N   3py       -0.000064 -0.000269  0.002006 -0.000301 -0.001180 -0.000586
  2N   1dz2      -0.000016  0.000020  0.000118  0.000009 -0.000103  0.000033
  2N   1dxz      -0.000021  0.000015 -0.000091 -0.000013  0.000017  0.000018
  2N   1dyz      -0.000002 -0.000034  0.000102  0.000006 -0.000039 -0.000019
  2N   1dx2y2     0.000035 -0.000026  0.000072 -0.000052  0.000047 -0.000012
  2N   1dxy       0.000010 -0.000001  0.000080  0.000007  0.000018  0.000024
  2N   2dz2      -0.000032 -0.000188 -0.002376 -0.000102  0.002719 -0.000492
  2N   2dxz       0.000217 -0.000036  0.000757  0.000372 -0.000721 -0.000201
  2N   2dyz      -0.000043  0.000225  0.000159 -0.000053  0.000143  0.000343
  2N   2dx2y2    -0.000188  0.000133  0.000046  0.000240 -0.000199  0.000045
  2N   2dxy       0.000049 -0.000031  0.000137  0.000072 -0.000210 -0.000099
  2N   1f0        0.000015  0.000007  0.000225 -0.000078 -0.000812  0.000042
  2N   1f+1      -0.000043 -0.000004 -0.000089 -0.000062  0.000343  0.000056
  2N   1f-1       0.000012 -0.000023 -0.000036  0.000014 -0.000036 -0.000092
  2N   1f+2       0.000009 -0.000020  0.000027  0.000051 -0.000005 -0.000024
  2N   1f-2      -0.000013  0.000033  0.000051 -0.000003 -0.000030  0.000013
  2N   1f+3      -0.000006  0.000006  0.000148  0.000037 -0.000161 -0.000013
  2N   1f-3       0.000011 -0.000004  0.000005 -0.000003 -0.000017 -0.000012
  3C   1s         0.000035 -0.000036  0.000001  0.467221  0.000744  0.000008
  3C   2s        -0.000198  0.000227 -0.000007  0.608274  0.000926  0.000080
  3C   3s        -0.000423 -0.001060 -0.000065  0.036149  0.000077 -0.000008
  3C   4s         0.003669 -0.003079  0.001845 -0.013231 -0.003831 -0.000964
  3C   5s        -0.002497  0.003682  0.005997  0.013787  0.011050 -0.007812
  3C   1pz        0.000086  0.000491  0.000077 -0.000233  0.000002 -0.000003
  3C   1px        0.000013 -0.000275  0.000001  0.000732  0.000334  0.000199
  3C   1py        0.000072  0.000398 -0.000047  0.000164  0.000071  0.000032
  3C   2pz        0.002996  0.006222 -0.000394 -0.005006  0.000094  0.001006
  3C   2px        0.003594 -0.005526 -0.000803  0.009967 -0.000696 -0.001928
  3C   2py        0.004240  0.004206  0.000346 -0.001833 -0.000147 -0.000097
  3C   3pz       -0.003655 -0.004775  0.000802  0.001274  0.000563 -0.000988
  3C   3px       -0.001433  0.001673 -0.002123 -0.007054 -0.005019  0.002282
  3C   3py       -0.005097 -0.003331 -0.000134 -0.000147 -0.001651 -0.000904
  3C   1dz2      -0.000050 -0.000049  0.000047  0.000130 -0.000055  0.000024
  3C   1dxz       0.000165  0.000208 -0.000020 -0.000837 -0.000070  0.000008
  3C   1dyz       0.000363 -0.000218  0.000026  0.002174  0.000014 -0.000004
  3C   1dx2y2    -0.000020 -0.000036  0.000028  0.000182  0.000115 -0.000061
  3C   1dxy       0.000254  0.000160 -0.000036 -0.000143  0.000005  0.000104
  3C   2dz2       0.000348 -0.001791 -0.000814  0.002122 -0.000732 -0.000620
  3C   2dxz       0.002445  0.002709  0.000625 -0.000181 -0.000067 -0.000387
  3C   2dyz       0.002222 -0.002304  0.000084  0.004354 -0.000994 -0.001294
  3C   2dx2y2    -0.002077  0.001090  0.000058 -0.003091  0.001158  0.000916
  3C   2dxy       0.002046  0.002726  0.000016 -0.000771  0.000282 -0.000160
  3C   1f0       -0.000295 -0.000195  0.000066 -0.000156 -0.000201  0.000037
  3C   1f+1      -0.000125  0.000087  0.000211  0.000947  0.000385 -0.000055
  3C   1f-1       0.000177  0.000141  0.000021 -0.000485  0.000060  0.000082
  3C   1f+2      -0.000191  0.000025 -0.000126 -0.000324  0.000370  0.000063
  3C   1f-2       0.000252  0.000121  0.000047  0.002001 -0.000067 -0.000096
  3C   1f+3       0.000070  0.000303  0.000008  0.000906  0.000579 -0.000043
  3C   1f-3      -0.000250 -0.000008 -0.000046  0.000188  0.000115  0.000040
  4O   1s         0.435392 -0.000038  0.000002 -0.000029 -0.000002 -0.000001
  4O   2s         0.639595 -0.000069 -0.000019 -0.000198  0.000014  0.000006
  4O   3s         0.034990  0.000310  0.000195  0.002169 -0.000173 -0.000183
  4O   4s        -0.027769 -0.001932 -0.000494 -0.005655  0.000487  0.000966
  4O   5s         0.012513  0.001458 -0.000402  0.000270  0.002055  0.001650
  4O   1pz       -0.001326  0.000016 -0.000004 -0.000391  0.000019  0.000032
  4O   1px        0.000465  0.000031 -0.000033 -0.000345  0.000071  0.000009
  4O   1py       -0.001182  0.000015  0.000015 -0.000515  0.000043  0.000039
  4O   2pz        0.003363  0.000483  0.000161  0.002570 -0.000136 -0.000393
  4O   2px        0.000563  0.000032  0.000058  0.002430 -0.000591 -0.000288
  4O   2py        0.003474  0.000533 -0.000003  0.003381 -0.000332 -0.000454
  4O   3pz       -0.000772  0.000544  0.000288 -0.001026 -0.000349 -0.000108
  4O   3px       -0.000764 -0.000405 -0.000699  0.001400 -0.001304  0.000340
  4O   3py       -0.000710  0.000154  0.000357 -0.000873 -0.000406 -0.000289
  4O   1dz2      -0.000066  0.000033  0.000003  0.000025  0.000008 -0.000017
  4O   1dxz       0.000047  0.000026 -0.000029  0.000120 -0.000031  0.000024
  4O   1dyz       0.000148 -0.000049  0.000002  0.000079 -0.000000  0.000007
  4O   1dx2y2     0.000054 -0.000050  0.000026 -0.000105 -0.000004  0.000025
  4O   1dxy       0.000135 -0.000033  0.000012  0.000092 -0.000020 -0.000019
  4O   2dz2       0.000291 -0.000174  0.000007 -0.000118 -0.000093  0.000039
  4O   2dxz      -0.000355 -0.000183  0.000085 -0.001356  0.000177 -0.000020
  4O   2dyz      -0.000918 -0.000026 -0.000055 -0.001647 -0.000031  0.000064
  4O   2dx2y2    -0.000162  0.000322 -0.000115  0.001014  0.000100 -0.000082
  4O   2dxy      -0.000777  0.000050 -0.000058 -0.001382  0.000179  0.000149
  4O   1f0       -0.000124  0.000027 -0.000010 -0.000270  0.000008 -0.000007
  4O   1f+1       0.000128  0.000054  0.000019  0.000139  0.000019 -0.000020
  4O   1f-1       0.000060 -0.000045 -0.000009  0.000194  0.000012 -0.000008
  4O   1f+2       0.000005  0.000025 -0.000002 -0.000290 -0.000038  0.000005
  4O   1f-2       0.000132  0.000032 -0.000000  0.000549  0.000011 -0.000008
  4O   1f+3       0.000216  0.000024  0.000009  0.000320  0.000006 -0.000018
  4O   1f-3       0.000026  0.000042 -0.000007  0.000006  0.000034 -0.000001
  5O   1s        -0.000040 -0.435388  0.000000 -0.000091 -0.000003 -0.000001
  5O   2s        -0.000047 -0.639595 -0.000003 -0.000307  0.000025  0.000020
  5O   3s        -0.000207 -0.035052  0.000055  0.002941 -0.000285 -0.000313
  5O   4s         0.001768  0.029381 -0.000060 -0.011488  0.000959  0.001452
  5O   5s        -0.002284 -0.011451  0.000129 -0.001358  0.001309  0.001010
  5O   1pz        0.000054 -0.001558  0.000020  0.000407 -0.000059 -0.000031
  5O   1px       -0.000066  0.001063  0.000004 -0.000298  0.000108  0.000066
  5O   1py        0.000062 -0.001215 -0.000028  0.000289 -0.000008 -0.000017
  5O   2pz        0.000226  0.004333 -0.000159 -0.005259  0.000389  0.000454
  5O   2px        0.000287 -0.003118 -0.000009  0.004011 -0.000629 -0.000717
  5O   2py        0.000159  0.003375  0.000098 -0.003808  0.000113  0.000319
  5O   3pz        0.000072 -0.000204  0.000065  0.000230  0.000283  0.000075
  5O   3px        0.000648  0.000559  0.000086  0.001547 -0.000431 -0.000407
  5O   3py        0.000795 -0.000292  0.000194  0.000432  0.000585  0.000165
  5O   1dz2      -0.000016 -0.000098  0.000011 -0.000009  0.000022  0.000016
  5O   1dxz      -0.000032  0.000192  0.000004 -0.000027  0.000029  0.000014
  5O   1dyz       0.000055 -0.000174 -0.000014 -0.000059 -0.000003  0.000014
  5O   1dx2y2     0.000046  0.000044  0.000016  0.000018 -0.000042 -0.000004
  5O   1dxy       0.000031  0.000177  0.000008 -0.000028  0.000018 -0.000001
  5O   2dz2       0.000124  0.000389 -0.000066 -0.000635 -0.000100 -0.000087
  5O   2dxz       0.000146 -0.000881  0.000025  0.001928 -0.000105 -0.000189
  5O   2dyz      -0.000116  0.000894 -0.000012 -0.001604  0.000056  0.000021
  5O   2dx2y2    -0.000250 -0.000157 -0.000031 -0.000024  0.000177  0.000074
  5O   2dxy      -0.000101 -0.000756 -0.000021  0.001491 -0.000046 -0.000119
  5O   1f0        0.000051 -0.000042  0.000020  0.000052 -0.000021 -0.000015
  5O   1f+1      -0.000003 -0.000065  0.000009  0.000272  0.000033 -0.000003
  5O   1f-1      -0.000039  0.000085 -0.000006 -0.000216  0.000034 -0.000001
  5O   1f+2       0.000019 -0.000020  0.000020  0.000057 -0.000040 -0.000001
  5O   1f-2      -0.000012 -0.000122  0.000013  0.000385  0.000049 -0.000015
  5O   1f+3      -0.000031 -0.000040  0.000006  0.000205  0.000036 -0.000008
  5O   1f-3       0.000005 -0.000022 -0.000017  0.000103  0.000009 -0.000003
  6H   1s         0.000021 -0.000015  0.000074  0.000019  0.000021 -0.000471
  6H   2s        -0.000669  0.000282  0.000931 -0.000004  0.000211 -0.002308
  6H   3s        -0.001339 -0.000654 -0.000148 -0.000119 -0.000828 -0.004816
  6H   1pz       -0.000097  0.000026  0.000106 -0.000128  0.000126 -0.001914
  6H   1px       -0.000022 -0.000047 -0.000033 -0.000187  0.000186  0.000414
  6H   1py        0.000030  0.000031  0.000032  0.000002 -0.000186 -0.000146
  7H   1s         0.000044 -0.000015 -0.000027 -0.000066  0.000145 -0.000539
  7H   2s        -0.000028  0.000052 -0.000326 -0.001052  0.000762 -0.002468
  7H   3s         0.000115 -0.000159  0.000900 -0.000593 -0.001143 -0.003812
  7H   1pz        0.000003 -0.000018  0.000151  0.000002  0.000151  0.000196
  7H   1px        0.000041 -0.000011 -0.000029 -0.000177  0.000206 -0.002019
  7H   1py       -0.000021  0.000046 -0.000010 -0.000030 -0.000190 -0.000141
  8H   1s         0.000036 -0.000042 -0.000071  0.000064  0.000017 -0.000434
  8H   2s        -0.000070  0.000538  0.000035  0.000143  0.000200 -0.002614
  8H   3s        -0.000118  0.000869  0.001051  0.000477 -0.000795 -0.005014
  8H   1pz        0.000013 -0.000001  0.000163  0.000030  0.000138  0.000614
  8H   1px        0.000063  0.000051  0.000003 -0.000144  0.000175  0.000537
  8H   1py       -0.000045 -0.000130 -0.000032  0.000110 -0.000172  0.001793
  9H   1s         0.000051 -0.000105  0.000004  0.000028  0.000422 -0.000032
  9H   2s         0.001268 -0.000275  0.000799  0.000088  0.003772 -0.000747
  9H   3s         0.000500  0.000341  0.001578  0.000600  0.005517 -0.000361
  9H   1pz       -0.000018  0.000069 -0.000159  0.000097  0.000732  0.000203
  9H   1px        0.000051 -0.000065  0.000064 -0.000253  0.000624  0.000090
  9H   1py        0.000148 -0.000061  0.000019  0.000097  0.001774 -0.000211
 10H   1s         0.000042 -0.000053  0.000201 -0.000061  0.000250 -0.000053
 10H   2s         0.000297 -0.000000 -0.001174 -0.000933  0.000721  0.000334
 10H   3s        -0.000037  0.000044 -0.002083 -0.000178  0.000784 -0.000013
 10H   1pz        0.000060  0.000010  0.000140  0.000114 -0.000117  0.000024
 10H   1px        0.000085 -0.000034 -0.000629 -0.000249  0.000177 -0.000036
 10H   1py       -0.000018  0.000010 -0.000044  0.000014  0.000023 -0.000061
 11H   1s         0.000011 -0.000002  0.000214  0.000059  0.000085 -0.000003
 11H   2s        -0.000172 -0.000061 -0.000912 -0.000282  0.001280  0.000039
 11H   3s         0.000143  0.000044 -0.002311  0.000133  0.001014 -0.000123
 11H   1pz        0.000016 -0.000005  0.000167  0.000121 -0.000290  0.000141
 11H   1px       -0.000021  0.000011  0.000235 -0.000017 -0.000056  0.000062
 11H   1py        0.000053  0.000022  0.000474  0.000090 -0.000108  0.000022
 12H   1s         0.000748 -0.000130  0.000018 -0.000348 -0.000013  0.000047
 12H   2s         0.001122  0.000099  0.000550 -0.000899  0.000345 -0.000463
 12H   3s        -0.000440 -0.000160  0.000184  0.000101  0.000712  0.000115
 12H   1pz        0.000204 -0.000019  0.000006 -0.000119  0.000027 -0.000014
 12H   1px       -0.000831  0.000010 -0.000111  0.000222 -0.000037  0.000055
 12H   1py       -0.000023 -0.000019 -0.000012 -0.000056  0.000016  0.000014
                      6         7         8         9        10        11   
                  -1.14870  -1.05242  -0.92898  -0.77878  -0.69741  -0.62862
                   2.00000   2.00000   2.00000   2.00000   2.00000   2.00000
                  --------  --------  --------  --------  --------  --------
  0C   1s         0.001894  0.000619  0.019513  0.064302  0.057644 -0.029438
  0C   2s         0.003907  0.001298  0.041154  0.136854  0.123137 -0.063058
  0C   3s        -0.004729 -0.001655 -0.061037 -0.207201 -0.186793  0.094892
  0C   4s        -0.009060 -0.002489 -0.060683 -0.235879 -0.229225  0.131567
  0C   5s        -0.012031  0.000810 -0.030325 -0.045325 -0.029950  0.039478
  0C   1pz       -0.001435  0.000415 -0.018736 -0.006798  0.011353 -0.022659
  0C   1px       -0.002726 -0.000751 -0.010191 -0.020568  0.029801 -0.019017
  0C   1py        0.001641  0.001241  0.016506  0.021999 -0.018839  0.063391
  0C   2pz       -0.001698  0.000471 -0.013830 -0.006514  0.004769 -0.012525
  0C   2px       -0.004509 -0.001390 -0.007869 -0.018046  0.018991 -0.009290
  0C   2py        0.003112  0.001717  0.011724  0.017829 -0.009787  0.039244
  0C   3pz       -0.004105  0.001492 -0.006765 -0.001267  0.000325  0.001294
  0C   3px       -0.002086 -0.000536 -0.004500 -0.004256  0.009728 -0.000802
  0C   3py        0.002367  0.000744  0.006627  0.006462 -0.004995  0.011165
  0C   1dz2       0.000121  0.000039 -0.000394  0.000847 -0.000565  0.000688
  0C   1dxz      -0.000204  0.000006 -0.001021 -0.000948  0.001339 -0.000732
  0C   1dyz       0.000123  0.000032  0.001698  0.001080 -0.000819  0.003047
  0C   1dx2y2    -0.000107 -0.000016  0.000399  0.000295  0.000135  0.001628
  0C   1dxy       0.000260  0.000163  0.000882  0.001960 -0.001756  0.002546
  0C   2dz2       0.000003  0.000983 -0.002964  0.003632 -0.000866  0.002110
  0C   2dxz      -0.000775  0.000111 -0.001798 -0.002647  0.000870 -0.000061
  0C   2dyz       0.000556 -0.000002  0.002962  0.001786  0.001838 -0.000387
  0C   2dx2y2    -0.000654  0.000056  0.001288  0.000905  0.000984  0.005697
  0C   2dxy       0.001393  0.000906  0.001397  0.003580 -0.001352 -0.000099
  0C   1f0        0.000145  0.000094  0.000421  0.003034  0.002433 -0.001262
  0C   1f+1       0.000040  0.000136 -0.000879 -0.001262 -0.001521  0.001056
  0C   1f-1      -0.000049 -0.000157  0.000969  0.000310  0.001188 -0.000755
  0C   1f+2      -0.000160 -0.000023  0.000466  0.000959  0.001562  0.000023
  0C   1f-2       0.000143  0.000033  0.000254  0.000887  0.000438 -0.000651
  0C   1f+3       0.000021 -0.000065 -0.000631 -0.002945 -0.002483  0.000866
  0C   1f-3      -0.000315 -0.000165 -0.000145 -0.001104 -0.000334  0.001022
  1C   1s         0.008629  0.002903  0.053653  0.046626 -0.021641  0.049969
  1C   2s         0.017877  0.006028  0.113652  0.099365 -0.046440  0.107520
  1C   3s        -0.026655 -0.011522 -0.170558 -0.146533  0.069656 -0.162531
  1C   4s        -0.018982  0.007521 -0.183685 -0.195925  0.096604 -0.245721
  1C   5s         0.023570 -0.002836  0.023634  0.038463  0.005731 -0.001649
  1C   1pz        0.000152  0.007991 -0.062229  0.086628  0.017508  0.008872
  1C   1px       -0.014716 -0.005198  0.010160 -0.018632  0.108528  0.013927
  1C   1py       -0.003020  0.005528 -0.011936 -0.031465 -0.035714  0.091757
  1C   2pz       -0.002042  0.002698 -0.028855  0.054629  0.013479  0.007546
  1C   2px       -0.004256  0.007115 -0.004693 -0.019005  0.077304 -0.005552
  1C   2py       -0.000160  0.005311 -0.012001 -0.026755 -0.023100  0.054311
  1C   3pz        0.001172 -0.003393 -0.009888  0.005202  0.006188 -0.000419
  1C   3px        0.000980  0.000648  0.000504  0.008691  0.016211  0.021933
  1C   3py        0.008667 -0.004027 -0.002656 -0.001595 -0.002787 -0.002113
  1C   1dz2       0.000235 -0.000161 -0.006447  0.005737 -0.002418 -0.000737
  1C   1dxz       0.000080  0.000987  0.002282 -0.002390 -0.000992  0.001512
  1C   1dyz       0.000016 -0.000009 -0.000733  0.003423  0.001976 -0.001529
  1C   1dx2y2    -0.000780  0.000026 -0.000627 -0.000602  0.005443  0.001198
  1C   1dxy      -0.000539  0.000974  0.000278  0.000764  0.004121 -0.000729
  1C   2dz2       0.000198 -0.001991 -0.001474  0.005009 -0.003501 -0.000920
  1C   2dxz      -0.000572  0.001251  0.002676 -0.001614 -0.001927  0.006422
  1C   2dyz      -0.001960 -0.001038  0.000804  0.006476  0.003378  0.004435
  1C   2dx2y2    -0.000115  0.002579 -0.005470 -0.003898  0.007028 -0.007849
  1C   2dxy      -0.000705  0.002709 -0.000743  0.001142  0.005848  0.002721
  1C   1f0       -0.000135 -0.000342 -0.003727 -0.002692  0.001297 -0.004450
  1C   1f+1       0.000143 -0.000657  0.002281  0.001369 -0.001263  0.001643
  1C   1f-1       0.000125 -0.000106 -0.001223 -0.000194 -0.000121 -0.000428
  1C   1f+2      -0.000322  0.000467 -0.000725 -0.000466  0.000403  0.000639
  1C   1f-2      -0.000579 -0.000422 -0.000581 -0.000648  0.000003 -0.000841
  1C   1f+3      -0.000023 -0.000331  0.002513  0.002765 -0.001788  0.002877
  1C   1f-3       0.000638 -0.000723  0.000737  0.001067 -0.001480 -0.000914
  2N   1s         0.003545 -0.001079  0.080180 -0.046293  0.010133 -0.011316
  2N   2s         0.007926 -0.002417  0.180869 -0.105035  0.023069 -0.025787
  2N   3s        -0.011162  0.003341 -0.263239  0.155719 -0.035153  0.038997
  2N   4s        -0.013485  0.005106 -0.342694  0.212895 -0.043756  0.054827
  2N   5s        -0.007950  0.003186 -0.078433  0.057778 -0.027188  0.034232
  2N   1pz        0.004169 -0.000209  0.046363  0.037369 -0.029624  0.087298
  2N   1px       -0.002551  0.001049  0.015268 -0.031010  0.049044 -0.010231
  2N   1py       -0.001855  0.001530 -0.038629  0.031672 -0.017146  0.063461
  2N   2pz        0.003863 -0.000695  0.049567  0.021948 -0.020936  0.064874
  2N   2px       -0.002371  0.000681  0.011082 -0.023710  0.039822 -0.008411
  2N   2py       -0.001187  0.001666 -0.033091  0.025525 -0.015105  0.050354
  2N   3pz        0.002214 -0.000543  0.007487  0.010996 -0.003585  0.020120
  2N   3px        0.000130 -0.000675 -0.000897 -0.006098  0.011321 -0.004928
  2N   3py       -0.000326  0.000585 -0.001283  0.005740 -0.007074  0.023570
  2N   1dz2      -0.000193 -0.000017 -0.001931 -0.002352  0.001701 -0.004374
  2N   1dxz       0.000264 -0.000054  0.001418 -0.000177 -0.001464  0.000311
  2N   1dyz      -0.000023  0.000032 -0.001866  0.002279 -0.000129  0.000505
  2N   1dx2y2    -0.000105  0.000022 -0.001543  0.001062 -0.000576 -0.000452
  2N   1dxy      -0.000194  0.000082 -0.001988  0.001344  0.000101  0.001248
  2N   2dz2      -0.000571 -0.000037 -0.009301 -0.001939  0.001279 -0.007079
  2N   2dxz       0.000769 -0.000024  0.003661 -0.001775 -0.004680 -0.001871
  2N   2dyz       0.000101 -0.000507 -0.001710  0.005123  0.000103 -0.001088
  2N   2dx2y2    -0.000282  0.000033 -0.001545  0.002026  0.000348 -0.000396
  2N   2dxy      -0.000022  0.000367 -0.002457  0.000909  0.001625 -0.000397
  2N   1f0        0.000113 -0.000019  0.003594 -0.001731  0.000688 -0.000019
  2N   1f+1      -0.000180  0.000059 -0.001715  0.000688  0.000908 -0.000106
  2N   1f-1      -0.000015  0.000050  0.000409 -0.000225 -0.000560  0.001382
  2N   1f+2       0.000112 -0.000011  0.000676 -0.000241 -0.000406 -0.000126
  2N   1f-2       0.000012 -0.000068 -0.000151  0.000409 -0.000102  0.000173
  2N   1f+3      -0.000026  0.000042 -0.002507  0.001888 -0.000777  0.000922
  2N   1f-3       0.000044 -0.000064 -0.000107  0.000178 -0.000297 -0.000247
  3C   1s         0.056406  0.027712  0.008129  0.022725 -0.046953 -0.019492
  3C   2s         0.118689  0.058492  0.017221  0.048794 -0.101269 -0.042111
  3C   3s        -0.186930 -0.088386 -0.027547 -0.080102  0.168426  0.068003
  3C   4s        -0.140959 -0.083021 -0.020661 -0.079306  0.182560  0.102980
  3C   5s        -0.013670 -0.003527 -0.004269 -0.032475  0.009765 -0.021420
  3C   1pz        0.003740  0.128689 -0.019032 -0.023045  0.083722  0.057129
  3C   1px       -0.068497 -0.035816  0.050986  0.083774 -0.076882  0.092925
  3C   1py       -0.019145  0.113245 -0.000914 -0.022535  0.043107  0.105737
  3C   2pz       -0.001902  0.045896 -0.011828 -0.008132  0.052080  0.032066
  3C   2px       -0.021474 -0.004093  0.025093  0.052242 -0.055206  0.043480
  3C   2py       -0.011249  0.041655 -0.000460 -0.014144  0.019668  0.067363
  3C   3pz       -0.001241  0.005597  0.002642 -0.002809  0.003438  0.002179
  3C   3px       -0.001817 -0.001137  0.004255  0.016563 -0.003784  0.029171
  3C   3py       -0.001967  0.005611  0.005213  0.000963 -0.000014  0.014836
  3C   1dz2      -0.001144 -0.004349  0.000778  0.002346 -0.000764  0.002378
  3C   1dxz       0.001770  0.014198  0.001234 -0.001571  0.000659  0.002505
[...]
      4      -0.020781   0.015398  -0.003072  -0.071777   0.011387   0.018614
      5       0.006025   0.043469   0.000106  -0.026775   0.003407   0.007694
      6       0.029221  -0.001745   0.000087   0.001000  -0.000576  -0.000091
      7      -0.022316   0.002022   0.000069   0.001905  -0.000204  -0.001014
      8      -0.064077   0.002916  -0.000095   0.000220   0.000196  -0.000547
      9      -0.018019   0.401016   0.001202   0.000676  -0.000489  -0.000215
     10      -0.008227  -0.324446   0.000205  -0.001587   0.000448   0.000804
     11      -0.008661  -0.502488  -0.000484  -0.001313  -0.000165   0.000849
     12       0.005007  -0.027124  -0.000173   0.000262  -0.000146  -0.000174
     13       0.002253   0.030818  -0.000146   0.000209  -0.000138  -0.000258
     14       0.001559   0.043593  -0.000005   0.000298   0.000012  -0.000146
     15       0.002129  -0.225175  -0.000279  -0.000171   0.000008   0.000097
     16       0.001671   0.218229   0.000052   0.000529  -0.000105  -0.000242
     17       0.002406   0.326730   0.000317   0.000464   0.000069  -0.000424
     18       0.003067   0.037570  -0.119056   0.031243  -0.077541   0.145714
     19      -0.015263  -0.002713   0.058694  -0.010374   0.049890  -0.055782
     20       0.003593  -0.008448   0.542435  -0.114153   0.435162  -0.668055
     21      -0.005629   0.006241   0.562978  -0.148568  -0.792448  -0.030890
     22       0.039607  -0.051858   0.059860  -0.010265  -0.069735   0.009468
     23      -0.004875   0.061579  -0.076877   0.024264   0.098088   0.018827
     24      -0.031386   0.009128  -0.174877  -0.056722  -0.086218  -0.195633
     25       0.007703   0.002101  -0.540971  -0.180076  -0.328046  -0.621463
     26       0.005322   0.002580  -0.187076  -0.061811  -0.119134  -0.199456
     27      -0.003125   0.204250   0.008449   0.272483  -0.042654  -0.065252
     28       0.010590  -0.045917   0.029908   0.858550  -0.133044  -0.211620
     29      -0.057622  -0.104673   0.009695   0.323557  -0.047969  -0.077552
     30       0.073167  -0.010998   0.001134  -0.000413   0.000438  -0.001855
     31       0.489659   0.007418   0.000265   0.000652  -0.001067   0.000653
     32       0.489427  -0.005364  -0.002160  -0.003529   0.003939   0.001034
     33      -0.588212  -0.031590  -0.000513  -0.007470   0.001119   0.001824
     34       0.031345   0.003302  -0.001336  -0.020364   0.001800   0.007422
     35       0.392208   0.022680  -0.002091  -0.003766  -0.001310  -0.001552
     36       0.009323  -0.106469  -0.000072   0.000387   0.000479   0.000362
     37       0.021199  -0.305478  -0.000197  -0.000255  -0.000076  -0.000107
     38       0.026316  -0.310260  -0.000391   0.000145  -0.000488  -0.000204
                 36         37         38    
      0      -0.000256  -0.000239   0.000017
      1       0.000220  -0.000147   0.000016
      2       0.000280   0.000001   0.000025
      3       0.000960   0.001196  -0.000613
      4      -0.002995   0.001676   0.000093
      5       0.000884   0.000715   0.000090
      6       0.029770   0.066127   0.000040
      7      -0.035978   0.045725   0.000060
      8      -0.030862   0.010719   0.000086
      9      -0.000414  -0.000402   0.003164
     10      -0.000165  -0.000022   0.001226
     11       0.000007   0.000479   0.000433
     12      -0.000160  -0.000084   0.059000
     13       0.000004  -0.000011   0.001834
     14       0.000090  -0.000036  -0.016025
     15       0.000090   0.000065  -0.000042
     16      -0.000013  -0.000034  -0.000600
     17      -0.000072  -0.000122  -0.000693
     18      -0.000139  -0.000288   0.000099
     19      -0.000681  -0.000185  -0.000014
     20       0.003954  -0.000326   0.000089
     21      -0.000526   0.000626  -0.000532
     22       0.001294   0.000981  -0.000257
     23      -0.001520  -0.000951  -0.000062
     24      -0.000703   0.000812   0.000041
     25       0.000985  -0.000054  -0.000763
     26      -0.001437   0.000961  -0.000134
     27       0.004601  -0.004600   0.000164
     28       0.013898  -0.013348  -0.000341
     29       0.003789  -0.006031   0.000246
     30      -0.686119  -0.697053  -0.002679
     31      -0.074140  -0.040308  -0.000260
     32       0.123656   0.126650   0.000248
     33       0.266350  -0.227515  -0.000381
     34       0.593616  -0.599797  -0.001556
     35       0.285893  -0.279462  -0.000657
     36       0.000507   0.002827  -0.963651
     37       0.000154   0.000075  -0.033122
     38       0.000274  -0.001505   0.257902


-----------
IR SPECTRUM
-----------

 Mode   freq       eps      Int      T**2         TX        TY        TZ
       cm**-1   L/(mol*cm) km/mol    a.u.
----------------------------------------------------------------------------
  6:     48.00   0.000236    1.19  0.001537  (-0.018313  0.034079 -0.006373)
  7:    226.99   0.005050   25.52  0.006942  ( 0.066910  0.049645  0.000730)
  8:    234.19   0.000079    0.40  0.000105  (-0.004044 -0.006521  0.006801)
  9:    247.98   0.002914   14.73  0.003667  (-0.049647 -0.034021  0.006710)
 10:    304.77   0.001642    8.30  0.001682  ( 0.035508  0.016772 -0.011813)
 11:    363.42   0.001109    5.61  0.000953  (-0.007403  0.011798 -0.027543)
 12:    533.53   0.001839    9.29  0.001075  (-0.029950 -0.006736  0.011534)
 13:    591.79   0.011988   60.58  0.006322  ( 0.052604 -0.023998  0.054577)
 14:    615.26   0.012102   61.16  0.006138  (-0.023817 -0.070631  0.024133)
 15:    783.39   0.011656   58.90  0.004643  (-0.014102  0.049275 -0.044901)
 16:    801.61   0.002643   13.36  0.001029  (-0.022958 -0.014018  0.017476)
 17:    852.70   0.028989  146.50  0.010609  (-0.027129  0.050323 -0.085679)
 18:    925.04   0.001273    6.43  0.000429  (-0.004812 -0.000920 -0.020134)
 19:   1028.49   0.004788   24.20  0.001453  ( 0.027729  0.012813  0.022797)
 20:   1096.65   0.005614   28.37  0.001597  ( 0.017837 -0.007457  0.034981)
 21:   1115.69   0.018127   91.61  0.005070  ( 0.051607  0.042795  0.023990)
 22:   1201.00   0.019448   98.28  0.005053  (-0.026291 -0.043898 -0.049345)
 23:   1251.30   0.006256   31.62  0.001560  (-0.031835 -0.021664 -0.008805)
 24:   1336.81   0.000714    3.61  0.000167  (-0.008383  0.004590 -0.008679)
 25:   1365.29   0.008043   40.65  0.001838  (-0.033087 -0.024415 -0.012149)
 26:   1391.50   0.001473    7.44  0.000330  (-0.013454  0.006599 -0.010281)
 27:   1421.04   0.006316   31.92  0.001387  ( 0.010577  0.014538  0.032617)
 28:   1482.88   0.000591    2.98  0.000124  (-0.002512 -0.008669 -0.006545)
 29:   1494.07   0.003457   17.47  0.000722  ( 0.017890  0.017347  0.010051)
 30:   1649.57   0.008208   41.48  0.001553  (-0.025261  0.019643  0.022997)
 31:   1853.64   0.061895  312.79  0.010420  ( 0.039461 -0.061016 -0.071693)
 32:   3045.60   0.002967   14.99  0.000304  (-0.010832  0.011400 -0.007532)
 33:   3089.97   0.000926    4.68  0.000094  ( 0.002136 -0.008133 -0.004777)
 34:   3127.99   0.003754   18.97  0.000374  ( 0.016271  0.008021 -0.006738)
 35:   3131.47   0.004089   20.67  0.000408  ( 0.002537  0.011987  0.016044)
 36:   3525.61   0.000290    1.47  0.000026  ( 0.002145  0.001744  0.004247)
 37:   3609.88   0.000905    4.58  0.000078  (-0.006509 -0.005600 -0.002131)
 38:   3786.12   0.014581   73.69  0.001202  (-0.033853 -0.007406  0.000975)

* The epsilon (eps) is given for a Dirac delta lineshape.
** The dipole moment derivative (T) already includes vibrational overlap.

The first frequency considered to be a vibration is 6
The total number of vibrations considered is 33


--------------------------
THERMOCHEMISTRY AT 298.15K
--------------------------

Temperature         ...   298.15 K
Pressure            ...     1.00 atm
Total Mass          ...    89.09 AMU
Quasi RRHO          ...     True
Cut-Off Frequency   ...     1.00 cm^-1

Throughout the following assumptions are being made:
  (1) The electronic state is orbitally nondegenerate
  (2) There are no thermally accessible electronically excited states
  (3) Hindered rotations indicated by low frequency modes are not
      treated as such but are treated as vibrations and this may
      cause some error
  (4) All equations used are the standard statistical mechanics
      equations for an ideal gas
  (5) All vibrations are strictly harmonic

freq.      48.00  E(vib)   ...       0.53 
freq.     226.99  E(vib)   ...       0.33 
freq.     234.19  E(vib)   ...       0.32 
freq.     247.98  E(vib)   ...       0.31 
freq.     304.77  E(vib)   ...       0.26 
freq.     363.42  E(vib)   ...       0.22 
freq.     533.53  E(vib)   ...       0.13 
freq.     591.79  E(vib)   ...       0.10 
freq.     615.26  E(vib)   ...       0.10 
freq.     783.39  E(vib)   ...       0.05 
freq.     801.61  E(vib)   ...       0.05 
freq.     852.70  E(vib)   ...       0.04 
freq.     925.04  E(vib)   ...       0.03 
freq.    1028.49  E(vib)   ...       0.02 
freq.    1096.65  E(vib)   ...       0.02 
freq.    1115.69  E(vib)   ...       0.01 
freq.    1201.00  E(vib)   ...       0.01 
freq.    1251.30  E(vib)   ...       0.01 
freq.    1336.81  E(vib)   ...       0.01 
freq.    1365.29  E(vib)   ...       0.01 
freq.    1391.50  E(vib)   ...       0.00 
freq.    1421.04  E(vib)   ...       0.00 
freq.    1482.88  E(vib)   ...       0.00 
freq.    1494.07  E(vib)   ...       0.00 
freq.    1649.57  E(vib)   ...       0.00 
freq.    1853.64  E(vib)   ...       0.00 
freq.    3045.60  E(vib)   ...       0.00 
freq.    3089.97  E(vib)   ...       0.00 
freq.    3127.99  E(vib)   ...       0.00 
freq.    3131.47  E(vib)   ...       0.00 
freq.    3525.61  E(vib)   ...       0.00 
freq.    3609.88  E(vib)   ...       0.00 
freq.    3786.12  E(vib)   ...       0.00 

------------
INNER ENERGY
------------

The inner energy is: U= E(el) + E(ZPE) + E(vib) + E(rot) + E(trans)
    E(el)   - is the total energy from the electronic structure calculation
              = E(kin-el) + E(nuc-el) + E(el-el) + E(nuc-nuc)
    E(ZPE)  - the the zero temperature vibrational energy from the frequency calculation
    E(vib)  - the the finite temperature correction to E(ZPE) due to population
              of excited vibrational states
    E(rot)  - is the rotational thermal energy
    E(trans)- is the translational thermal energy

Summary of contributions to the inner energy U:
Electronic energy                ...   -323.51662260 Eh
Zero point energy                ...      0.10828871 Eh      67.95 kcal/mol
Thermal vibrational correction   ...      0.00406861 Eh       2.55 kcal/mol
Thermal rotational correction    ...      0.00141627 Eh       0.89 kcal/mol
Thermal translational correction ...      0.00141627 Eh       0.89 kcal/mol
-----------------------------------------------------------------------
Total thermal energy                   -323.40143274 Eh


Summary of corrections to the electronic energy:
(perhaps to be used in another calculation)
Total thermal correction                  0.00690115 Eh       4.33 kcal/mol
Non-thermal (ZPE) correction              0.10828871 Eh      67.95 kcal/mol
-----------------------------------------------------------------------
Total correction                          0.11518986 Eh      72.28 kcal/mol


--------
ENTHALPY
--------

The enthalpy is H = U + kB*T
                kB is Boltzmann's constant
Total thermal energy              ...   -323.40143274 Eh 
Thermal Enthalpy correction       ...      0.00094421 Eh       0.59 kcal/mol
-----------------------------------------------------------------------
Total Enthalpy                    ...   -323.40048853 Eh


Note: Only C1 symmetry has been detected, increase convergence thresholds 
      if your molecule has a higher symmetry. Symmetry factor of 1.0 is   
      used for the rotational entropy correction. 
 

Note: Rotational entropy computed according to Herzberg 
Infrared and Raman Spectra, Chapter V,1, Van Nostrand Reinhold, 1945 
Point Group:  C1, Symmetry Number:   1  
Rotational constants in cm-1:     0.169164     0.099458     0.082019 

Vibrational entropy computed according to the QRRHO of S. Grimme
Chem.Eur.J. 2012 18 9955 using a reference frequency of 100.0 cm-1


-------
ENTROPY
-------

The entropy contributions are T*S = T*(S(el)+S(vib)+S(rot)+S(trans))
     S(el)   - electronic entropy
     S(vib)  - vibrational entropy
     S(rot)  - rotational entropy
     S(trans)- translational entropy
The entropies will be listed as multiplied by the temperature to get
units of energy

Electronic entropy                ...      0.00000000 Eh      0.00 kcal/mol
Vibrational entropy               ...      0.00676955 Eh      4.25 kcal/mol
Rotational entropy                ...      0.01261986 Eh      7.92 kcal/mol
Translational entropy             ...      0.01870769 Eh     11.74 kcal/mol
-----------------------------------------------------------------------
Final entropy term                ...      0.03809710 Eh     23.91 kcal/mol

In case the symmetry of your molecule has not been determined correctly
or in case you have a reason to use a different symmetry number we print 
out the resulting rotational entropy values for sn=1,12:

 non-linear molecules -----------------------------------
|  sn= 1 | S(rot)=       0.01261986 Eh      7.92 kcal/mol|
|  sn= 2 | S(rot)=       0.01196541 Eh      7.51 kcal/mol|
|  sn= 3 | S(rot)=       0.01158257 Eh      7.27 kcal/mol|
|  sn= 4 | S(rot)=       0.01131095 Eh      7.10 kcal/mol|
|  sn= 5 | S(rot)=       0.01110026 Eh      6.97 kcal/mol|
|  sn= 6 | S(rot)=       0.01092812 Eh      6.86 kcal/mol|
|  sn= 7 | S(rot)=       0.01078257 Eh      6.77 kcal/mol|
|  sn= 8 | S(rot)=       0.01065649 Eh      6.69 kcal/mol|
|  sn= 9 | S(rot)=       0.01054528 Eh      6.62 kcal/mol|
|  sn=10 | S(rot)=       0.01044581 Eh      6.55 kcal/mol|
|  sn=11 | S(rot)=       0.01035581 Eh      6.50 kcal/mol|
|  sn=12 | S(rot)=       0.01027366 Eh      6.45 kcal/mol|
 linear molecules ---------------------------------------
|  Dinfh | S(rot)=       0.00768702 Eh      4.82 kcal/mol|
|  Cinfv | S(rot)=       0.00834148 Eh      5.23 kcal/mol|
 --------------------------------------------------------


-------------------
GIBBS FREE ENERGY
-------------------

The Gibbs free energy is G = H - T*S

Total enthalpy                    ...   -323.40048853 Eh 
Total entropy correction          ...     -0.03809710 Eh    -23.91 kcal/mol
-----------------------------------------------------------------------
Final Gibbs free energy         ...   -323.43858564 Eh

For completeness - the Gibbs free energy minus the electronic energy
G-E(el)                           ...      0.07803697 Eh     48.97 kcal/mol


Maximum memory used throughout the entire PROP-calculation: 59.4 MB

--------------------------------
SUGGESTED CITATIONS FOR THIS RUN
--------------------------------

Below you find a list of papers that are relevant to this ORCA run
We neither can nor want to force you to cite these papers, but we appreciate if you do
You receive ORCA, which is the product of decades of hard work by many enthusiastic individuals, for free
The only thing we kindly ask in return is that you cite our papers,
We deeply appreciate it, if you show your appreciation for ORCA by not just citing the generic ORCA reference.

Please note that relegating all ORCA citations to the supporting information does *not* help us.
SI sections are not indexed - citations you put there will not count into any citation statistics
But we need these citations in order to attract the funding resources that allow us to do what we are doing

Therefore, if you are a happy ORCA user, please consider citing a few of the papers listed below in the main body of your paper

In addition to the list printed below, the program has created the file alanine_gas.bibtex that contains the list in bibtex format
You can import this file easily into all common literature databanks and citation aid programs


List of essential papers. We consider these as the minimum necessary citations

  1. Neese,F.
     Software update: the ORCA program system, version 5.0
     WIRES Comput. Molec. Sci., 2022 12(1)e1606
     doi.org/10.1002/wcms.1606

List of papers to cite with high priority. The work reported in these papers was absolutely
necessary for this run to complete.
Our perspective: the developers of density functionals and basis sets usually get cited in chemistry papers
Good! But without the algorithms to do something with them, the functionals or basis sets would not do anything.
Hence, in our opinion, the algorithm design and method developments papers are equally worthy of getting cited

  1. Neese,F.
     An improvement of the resolution of the identity approximation for the formation of the Coulomb matrix
     J. Comp. Chem., 2003 24(14)1740-1747
     doi.org/10.1002/jcc.10318
  2. Neese,F.; Wennmohs,F.; Hansen,A.; Becker,U.
     Efficient, approximate and parallel Hartree-Fock and hybrid DFT calculations. A 'chain-of-spheres' algorithm for the Hartree-Fock exchange
     Chem. Phys., 2009 356(1-3)98-109
     doi.org/10.1016/j.chemphys.2008.10.036
  3. Bykov,D.; Petrenko,T.; Izsak,R.; Kossmann,S.; Becker,U.; Valeev,E.; Neese,F.
     Efficient implementation of the analytic second derivatives of Hartree-Fock and hybrid DFT energies: a detailed analysis of different approximations
     Molec. Phys., 2015 113 1961-1977
     doi.org/10.1080/00268976.2015.1025114
  4. Helmich-Paris,B.; de Souza,B.; Neese,F.; Izsák,R.
     An improved chain of spheres for exchange algorithm
     J. Chem. Phys., 2021 155 104109
     doi.org/doi: 10.1063/5.0058766.
  5. Neese,F.
     The SHARK Integral Generation and Digestion System
     J. Comp. Chem., 2022  1-16
     doi.org/10.1002/jcc.26942

List of suggested additional citations. These are papers that are important in the 'surrounding' of 
of this run, or papers that preceded the highly important papers. If you like your results we are grateful for a citation.

  1. Izsak,R.; Neese,F.
     An overlap fitted chain of spheres exchange method
     J. Chem. Phys., 2011 135 144105
     doi.org/10.1063/1.3646921
  2. Izsak,R.; Hansen,A.; Neese,F.
     The resolution of identity and chain of spheres approximations for the LPNO-CCSD singles Fock term
     Molec. Phys., 2012 110 2413-2417
     doi.org/10.1080/00268976.2012.687466
  3. Neese,F.
     The ORCA program system
     WIRES Comput. Molec. Sci., 2012 2(1)73-78
     doi.org/10.1002/wcms.81
  4. Izsak,R.; Neese,F.; Klopper,W.
     Robust fitting techniques in the chain of spheres approximation to the Fock exchange: The role of the complementary space
     J. Chem. Phys., 2013 139 
     doi.org/10.1063/1.4819264
  5. Neese,F.
     Software update: the ORCA program system, version 4.0
     WIRES Comput. Molec. Sci., 2018 8(1)1-6
     doi.org/10.1002/wcms.1327
  6. Neese,F.; Wennmohs,F.; Becker,U.; Riplinger,C.
     The ORCA quantum chemistry program package
     J. Chem. Phys., 2020 152 Art. No. L224108
     doi.org/10.1063/5.0004608

List of optional additional citations

  1. Neese,F.
     Approximate second-order SCF convergence for spin unrestricted wavefunctions
     Chem. Phys. Lett., 2000 325(1-3)93-98
     doi.org/10.1016/s0009-2614(00)00662-x

Timings for individual modules:

Sum of individual times          ...      227.000 sec (=   3.783 min)
Startup calculation              ...        7.237 sec (=   0.121 min)   3.2 %
SCF iterations                   ...       64.307 sec (=   1.072 min)  28.3 %
Property integrals               ...       31.944 sec (=   0.532 min)  14.1 %
SCF Response                     ...       17.318 sec (=   0.289 min)   7.6 %
Property calculations            ...       59.221 sec (=   0.987 min)  26.1 %
SCF Gradient evaluation          ...       46.947 sec (=   0.782 min)  20.7 %
Geometry relaxation              ...        0.026 sec (=   0.000 min)   0.0 %
                             ****ORCA TERMINATED NORMALLY****
TOTAL RUN TIME: 0 days 0 hours 3 minutes 49 seconds 419 msec
